Title: C:\Users\georg\AppData\Local\LTspice\examples\Educational\stepAC.net
Date: Thu Jul  9 01:02:47 2026
Plotname: AC Analysis
Flags: complex forward log stepped
No. Variables: 11
No. Points:          153
Offset:    0.0000000000000000e+00
Command: Linear Technology Corporation LTspice
Variables:
	0	frequency	frequency
	1	V(in)	voltage
	2	V(out)	voltage
	3	I(C1)	device_current
	4	I(C2)	device_current
	5	I(C3)	device_current
	6	I(I1)	device_current
	7	I(L1)	device_current
	8	I(L2)	device_current
	9	I(R1)	device_current
	10	I(R2)	device_current
Values:
0		5.000000000000000e+06,0.000000000000000e+00
	5.644031859623122e-02,2.841903395037134e-01
	-9.927038797473328e-03,-2.421873830017154e-02
	3.195587233567373e-04,-1.309841910637809e-04
	-3.749803187785433e-03,7.447124591263871e-04
	4.844478465645439e-04,-1.042496012131152e-04
	5.000000000000000e-03,0.000000000000000e+00
	-7.709164405963702e-04,3.159629199441346e-04
	9.046116639029206e-03,-1.796263192018547e-03
	-3.309012932491109e-05,-8.072912766723848e-05
	1.881343953207708e-04,9.473011316790448e-04
1		5.069797398950146e+06,0.000000000000000e+00
	6.092286505636721e-02,2.946653561066110e-01
	-1.124849403168019e-02,-2.629622515686864e-02
	3.518140445485249e-04,-1.504922534226048e-04
	-3.942292481212650e-03,8.150797094679597e-04
	5.112031578287114e-04,-1.149490432012577e-04
	5.000000000000000e-03,0.000000000000000e+00
	-8.255222222716356e-04,3.530953804800913e-04
	9.250419422186804e-03,-1.912246606357921e-03
	-3.749498010560065e-05,-8.765408385622882e-05
	2.030762168545574e-04,9.822178536887034e-04
2		5.140569133280331e+06,0.000000000000000e+00
	6.593532068186296e-02,3.058522151949996e-01
	-1.279088820176742e-02,-2.859890010941554e-02
	3.879624504443085e-04,-1.735166146646014e-04
	-4.149081762826473e-03,8.944549785026548e-04
	5.401243111036644e-04,-1.271394753770543e-04
	5.000000000000000e-03,0.000000000000000e+00
	-8.854504675420814e-04,3.959857570730408e-04
	9.469421671657260e-03,-2.041101837863041e-03
	-4.263629400589141e-05,-9.532966703138513e-05
	2.197844022728765e-04,1.019507383983332e-03
3		5.212328804205606e+06,0.000000000000000e+00
	7.156414380478554e-02,3.178221772369796e-01
	-1.459983348202830e-02,-3.115575115849688e-02
	4.285477204202106e-04,-2.008208797601576e-04
	-4.371647753283278e-03,9.843656323786289e-04
	5.714518421075582e-04,-1.410936323974746e-04
	5.000000000000000e-03,0.000000000000000e+00
	-9.513334509210078e-04,4.457670160192885e-04
	9.704552449374884e-03,-2.184866522232703e-03
	-4.866611160676101e-05,-1.038525038616563e-04
	2.385471460159518e-04,1.059407257456599e-03
4		5.285090202806901e+06,0.000000000000000e+00
	7.791400210838555e-02,3.306549343316940e-01
	-1.673228444269118e-02,-3.399955594718234e-02
	4.741926386266500e-04,-2.333655804933806e-04
	-4.611652458909886e-03,1.086668493645417e-03
	6.054577497067304e-04,-1.571469135879521e-04
	5.000000000000000e-03,0.000000000000000e+00
	-1.023876106857743e-03,5.038443472386072e-04
	9.957396868255331e-03,-2.345998521672349e-03
	-5.577428147563728e-05,-1.133318531572745e-04
	2.597133403612852e-04,1.102183114438980e-03
5		5.358867312681464e+06,0.000000000000000e+00
	8.511248805088441e-02,3.444393816183460e-01
	-1.925984784230310e-02,-3.716709431046017e-02
	5.256065544311896e-04,-2.723673305936350e-04
	-4.870964490002581e-03,1.203636776386388e-03
	6.424489338611632e-04,-1.757147746404790e-04
	5.000000000000000e-03,0.000000000000000e+00
	-1.103855995484676e-03,5.719724196023144e-04
	1.022970513036080e-02,-2.527482823088020e-03
	-6.419949280767700e-05,-1.238903143682006e-04
	2.837082935029480e-04,1.148131272061153e-03
6		5.433674312630289e+06,0.000000000000000e+00
	9.331627626894820e-02,3.592742067060194e-01
	-2.227319499376974e-02,-4.069912607114070e-02
	5.835900064735001e-04,-3.193782094455498e-04
	-5.151679086446068e-03,1.338074094679254e-03
	6.827701301094724e-04,-1.973157504910480e-04
	5.000000000000000e-03,0.000000000000000e+00
	-1.192116153270407e-03,6.523577135070668e-04
	1.052339496232571e-02,-2.732970534190366e-03
	-7.424398331256579e-05,-1.356637535704690e-04
	3.110542542298274e-04,1.197580689020065e-03
7		5.509525579383052e+06,0.000000000000000e+00
	1.027192223756181e-01,3.752680679715675e-01
	-2.588798193226716e-02,-4.463991235178667e-02
	6.490328754983316e-04,-3.763930184705149e-04
	-5.456133321205804e-03,1.493465124707657e-03
	7.268054996076352e-04,-2.226021599021633e-04
	5.000000000000000e-03,0.000000000000000e+00
	-1.289545101998410e-03,7.477948862119672e-04
	1.084054141289471e-02,-2.966960844515045e-03
	-8.629327310755719e-05,-1.487997078392889e-04
	3.423974079187269e-04,1.250893559905225e-03
8		5.586435690361097e+06,0.000000000000000e+00
	1.135630872725502e-01,3.925389595069800e-01
	-3.025283801636624e-02,-4.903589534835774e-02
	7.228997455917996e-04,-4.459950970629828e-04
	-5.786910016561351e-03,1.674176158398530e-03
	7.749773526372802e-04,-2.524013399358944e-04
	5.000000000000000e-03,0.000000000000000e+00
	-1.397034304841193e-03,8.618494214934030e-04
	1.118334374495680e-02,-3.235040696691025e-03
	-1.008427933878875e-04,-1.634529844945258e-04
	3.785436242418341e-04,1.308463198356600e-03
9		5.664419426478990e+06,0.000000000000000e+00
	1.261518199059249e-01,4.112120629759988e-01
	-3.556019317058114e-02,-5.393287014593511e-02
	8.061912775507342e-04,-5.315555705559351e-04
	-6.146818767439166e-03,1.885723800348738e-03
	8.277392910702264e-04,-2.877713536791278e-04
	5.000000000000000e-03,0.000000000000000e+00
	-1.515396591385690e-03,9.991031580548467e-04
	1.155405199215631e-02,-3.544202030614529e-03
	-1.185339772352705e-04,-1.797762338197837e-04
	4.205060663530832e-04,1.370706876586663e-03
10		5.743491774985172e+06,0.000000000000000e+00
	1.408706545579475e-01,4.314148732833272e-01
	-4.206098446486872e-02,-5.937049526666445e-02
	8.998618373950088e-04,-6.375064683762428e-04
	-6.538833452687152e-03,2.135136745553277e-03
	8.855589631050193e-04,-3.300765730868477e-04
	5.000000000000000e-03,0.000000000000000e+00
	-1.645217518950466e-03,1.165484692351972e-03
	1.195482356726568e-02,-3.903262896251216e-03
	-1.402032815495624e-04,-1.979016508888815e-04
	4.695688485264916e-04,1.438049577611091e-03
11		5.823667932342277e+06,0.000000000000000e+00
	1.582116671002080e-01,4.532674959507472e-01
	-5.008460024895919e-02,-6.537214270079343e-02
	1.004658544447623e-03,-7.697150423180131e-04
	-6.965949774838412e-03,2.431443985414871e-03
	9.488819427721471e-04,-3.810903604443910e-04
	5.000000000000000e-03,0.000000000000000e+00
	-1.786591819723239e-03,1.368712545098382e-03
	1.238745949394320e-02,-4.323425999028420e-03
	-1.669486674965307e-04,-2.179071423359781e-04
	5.273722236673599e-04,1.510891653169157e-03
12		5.904963307147649e+06,0.000000000000000e+00
	1.788078183638646e-01,4.768644715720584e-01
	-6.006570870113908e-02,-7.192661554878020e-02
	1.120820298107890e-03,-9.359937905991753e-04
	-7.430898494340735e-03,2.786332024015370e-03
	1.018061761005789e-03,-4.431340255493506e-04
	5.000000000000000e-03,0.000000000000000e+00
	-1.938663030109881e-03,1.618883201311126e-03
	1.285293419413364e-02,-4.819014288138248e-03
	-2.002190290037969e-04,-2.397553851626007e-04
	5.960260612128820e-04,1.589548238573528e-03
13		5.987393523094639e+06,0.000000000000000e+00
	2.034776584404339e-01,5.022418127760683e-01
	-7.257963624163105e-02,-7.895570490158561e-02
	1.247528503489776e-03,-1.146784327962297e-03
	-7.935601079915606e-03,3.215020105820125e-03
	1.093229712310165e-03,-5.192624325931455e-04
	5.000000000000000e-03,0.000000000000000e+00
	-2.098826094994504e-03,1.929232443560728e-03
	1.335057193075766e-02,-5.408421914333498e-03
	-2.419321208054368e-04,-2.631856830052854e-04
	6.782588614681132e-04,1.674139375920228e-03
14		6.070974421975231e+06,0.000000000000000e+00
	2.332821275048105e-01,5.293183700444584e-01
	-8.838705506565553e-02,-8.625717295311704e-02
	1.381919617610119e-03,-1.416042297194269e-03
	-8.480169410646287e-03,3.737395249574698e-03
	1.174058217649572e-03,-6.135044698534485e-04
	5.000000000000000e-03,0.000000000000000e+00
	-2.261354318374173e-03,2.317070676891441e-03
	1.387662053661316e-02,-6.115294286243008e-03
	-2.946235168855184e-04,-2.875239098437235e-04
	7.776070916827018e-04,1.764394566814861e-03
15		6.155722066724577e+06,0.000000000000000e+00
	2.695916307781551e-01,5.577930501357463e-01
	-1.084852636860749e-01,-9.340545754529736e-02
	1.517331290486424e-03,-1.762296224155047e-03
	-9.061107036239144e-03,4.379399531709186e-03
	1.259337896038758e-03,-7.311542566505038e-04
	5.000000000000000e-03,0.000000000000000e+00
	-2.415051640904932e-03,2.804802005956542e-03
	1.442180616301738e-02,-6.969863955478844e-03
	-3.616175456202498e-04,-3.113515251509912e-04
	8.986387692605169e-04,1.859310167119155e-03
16		6.241652744508055e+06,0.000000000000000e+00
	3.141518931334184e-01,5.869676291571055e-01
	-1.341534020750890e-01,-9.958110386853197e-02
	1.640233576404719e-03,-2.209685431515064e-03
	-9.668139598825991e-03,5.174500614984358e-03
	1.346234901813180e-03,-8.790697674404075e-04
	5.000000000000000e-03,0.000000000000000e+00
	-2.539290471300935e-03,3.420692211850578e-03
	1.496720152352777e-02,-8.010129146281785e-03
	-4.471780069169634e-04,-3.319370128951066e-04
	1.047172977111395e-03,1.956558763857019e-03
17		6.328782969851395e+06,0.000000000000000e+00
	3.691123722972380e-01,6.154495254275848e-01
	-1.669539071345117e-01,-1.032853600422406e-01
	1.724996147075418e-03,-2.788341410907011e-03
	-1.027878548951949e-02,6.164643467285244e-03
	1.429021623404155e-03,-1.065831533118126e-03
	5.000000000000000e-03,0.000000000000000e+00
	-2.597504746697868e-03,4.198457477499273e-03
	1.547743253859951e-02,-9.281973418495319e-03
	-5.565130237817057e-04,-3.442845334741353e-04
	1.230374574324127e-03,2.051498418091950e-03
18		6.417129487814516e+06,0.000000000000000e+00
	4.369242436430701e-01,6.406789192536833e-01
	-2.085954585923838e-01,-1.018877231429646e-01
	1.725408045572188e-03,-3.532440135305656e-03
	-1.084951677993336e-02,7.399052427832675e-03
	1.497014860179232e-03,-1.301368162278373e-03
	5.000000000000000e-03,0.000000000000000e+00
	-2.527104710443473e-03,5.173434041393911e-03
	1.589011749463569e-02,-1.083601698762333e-02
	-6.953181953079462e-04,-3.396257438098822e-04
	1.456414145476900e-03,2.135596397512277e-03
19		6.506709277209663e+06,0.000000000000000e+00
	5.199013514261349e-01,6.582568468362061e-01
	-2.604489446825308e-01,-9.098864054762994e-02
	1.562347863218111e-03,-4.472117065966683e-03
	-1.130279749113173e-02,8.927122777041952e-03
	1.531564923136886e-03,-1.595147600358171e-03
	5.000000000000000e-03,0.000000000000000e+00
	-2.225749637413227e-03,6.370560134816954e-03
	1.610135790951483e-02,-1.271645986685414e-02
	-8.681631489417693e-04,-3.032954684920998e-04
	1.733004504753783e-03,2.194189489454020e-03
20		6.597539553864465e+06,0.000000000000000e+00
	6.190656427342472e-01,6.612317171542548e-01
	-3.223365991339466e-01,-6.376393670717051e-02
	1.110161810073104e-03,-5.612040297805353e-03
	-1.151237263415646e-02,1.077824033431481e-02
	1.502682671932091e-03,-1.951223884776210e-03
	5.000000000000000e-03,0.000000000000000e+00
	-1.538389151558707e-03,7.775810638272132e-03
	1.595150316364106e-02,-1.493356994293853e-02
	-1.074455330446489e-03,-2.125464556905684e-04
	2.063552142447491e-03,2.204105723847516e-03
21		6.689637773930554e+06,0.000000000000000e+00
	7.318320369380973e-01,6.400356377699298e-01
	-3.901499670798153e-01,-1.099712341265596e-02
	1.941381380798771e-04,-6.887527341343863e-03
	-1.129889357051522e-02,1.291942480838746e-02
	1.368218060547035e-03,-2.357970494015634e-03
	5.000000000000000e-03,0.000000000000000e+00
	-2.618563083608609e-04,9.282154913401681e-03
	1.522767150793526e-02,-1.741084742830286e-02
	-1.300499890266051e-03,-3.665707804218654e-05
	2.439440123126991e-03,2.133452125899766e-03
22		6.783021637238353e+06,0.000000000000000e+00
	8.487758602193759e-01,5.847012857137801e-01
	-4.525463061918730e-01,7.654626516483862e-02
	-1.370176033279084e-03,-8.100566387632319e-03
	-1.046613687274309e-02,1.519306446622867e-02
	1.082852480888573e-03,-2.773051292126309e-03
	5.000000000000000e-03,0.000000000000000e+00
	1.795811239696755e-03,1.061846346254250e-02
	1.371973648623375e-02,-1.991512004406758e-02
	-1.508487687306243e-03,2.551542172161287e-04
	2.829252867397920e-03,1.949004285712601e-03
23		6.877709090698712e+06,0.000000000000000e+00
	9.521842956374442e-01,4.911052503065893e-01
	-4.894453139928883e-01,2.016209715646125e-01
	-3.659389724678578e-03,-8.883357415246257e-03
	-8.913485004865732e-03,1.728199899254696e-02
	6.254875333556138e-04,-3.114923381880145e-03
	5.000000000000000e-03,0.000000000000000e+00
	4.665386571299259e-03,1.132621089191103e-02
	1.136502488609653e-02,-2.203393987544907e-02
	-1.631484379976294e-03,6.720699052153752e-04
	3.173947652124814e-03,1.637017501021965e-03
24		6.973718331752020e+06,0.000000000000000e+00
	1.021796702532594e+00,3.688972273725426e-01
	-4.777824352094031e-01,3.521730818104611e-01
	-6.481114869076525e-03,-8.792730066421766e-03
	-6.788892817117829e-03,1.880433838927391e-02
	3.664023190967916e-05,-3.285365292344724e-03
	5.000000000000000e-03,0.000000000000000e+00
	8.037082754531522e-03,1.090418508606495e-02
	8.419544040585529e-03,-2.331936110619378e-02
	-1.592608117364677e-03,1.173910272701537e-03
	3.405989008441980e-03,1.229657424575142e-03
25		7.071067811865468e+06,0.000000000000000e+00
	1.048281583326779e+00,2.414019250935750e-01
	-4.051809870898823e-01,5.008419232461097e-01
	-9.345764549119154e-03,-7.560721116512767e-03
	-4.504586075794675e-03,1.956104791598235e-02
	-5.763307706338664e-04,-3.228782027677990e-03
	5.000000000000000e-03,0.000000000000000e+00
	1.127269861005263e-02,9.120030066703724e-03
	5.433983360738212e-03,-2.359450302730559e-02
	-1.350603290299608e-03,1.669473077487032e-03
	3.494271944422597e-03,8.046730836452501e-04
26		7.169776240079129e+06,0.000000000000000e+00
	1.041709310103274e+00,1.317523375435541e-01
	-2.790300605603390e-01,6.180277276036925e-01
	-1.169345155745686e-02,-5.279414418650243e-03
	-2.492832453684316e-03,1.970975865739081e-02
	-1.095311798068160e-03,-2.974901556671553e-03
	5.000000000000000e-03,0.000000000000000e+00
	1.371886355739282e-02,6.194223549976154e-03
	2.925156288605242e-03,-2.312383467254087e-02
	-9.301002018677968e-04,2.060092425345642e-03
	3.472364367010914e-03,4.391744584785137e-04
27		7.269862586601544e+06,0.000000000000000e+00
	1.023702934919739e+00,4.790769980912151e-02
	-1.200354475218587e-01,6.860483156281825e-01
	-1.316164168016299e-02,-2.302845897601404e-03
	-9.190955859006966e-04,1.963944945190582e-02
	-1.457445963602655e-03,-2.612178017798479e-03
	5.000000000000000e-03,0.000000000000000e+00
	1.501920580217185e-02,2.628196196639275e-03
	1.049306505898914e-03,-2.241131980240137e-02
	-4.001181584061956e-04,2.286827718760608e-03
	3.412343116399130e-03,1.596923326970717e-04
28		7.371346086455497e+06,0.000000000000000e+00
	1.012227983506357e+00,-1.885440510874560e-02
	5.034299880985305e-02,7.004529002372176e-01
	-1.362557687956999e-02,9.792983945093900e-04
	3.667657686059507e-04,1.969038918140972e-02
	-1.665755077163803e-03,-2.227510807964326e-03
	5.000000000000000e-03,0.000000000000000e+00
	1.512352196070095e-02,-1.086630587335790e-03
	-4.066141241242769e-04,-2.185505197234490e-02
	1.678099960328435e-04,2.334843000790726e-03
	3.374093278354524e-03,-6.284801702915202e-05
29		7.474246243174682e+06,0.000000000000000e+00
	1.012801885379641e+00,-8.516354632537571e-02
	2.148305146821399e-01,6.631919511911163e-01
	-1.308084523437870e-02,4.237332357746258e-03
	1.679771847490424e-03,1.997657645262977e-02
	-1.757216319270134e-03,-1.873719535105181e-03
	5.000000000000000e-03,0.000000000000000e+00
	1.412195983804170e-02,-4.574252659944798e-03
	-1.812994451359363e-03,-2.156641749998370e-02
	7.161017156071331e-04,2.210639837303721e-03
	3.376006284598805e-03,-2.838784877512524e-04
30		7.578582832551981e+06,0.000000000000000e+00
	1.017860506904759e+00,-1.656657037472676e-01
	3.578589098275433e-01,5.788269555452629e-01
	-1.157619698200601e-02,7.156966675864530e-03
	3.313216154445410e-03,2.035660850838275e-02
	-1.772549182910883e-03,-1.571385932442645e-03
	5.000000000000000e-03,0.000000000000000e+00
	1.215588313215841e-02,-7.515003928572762e-03
	-3.478633693705491e-03,-2.137577542833450e-02
	1.192863032758478e-03,1.929423185150876e-03
	3.392868356349199e-03,-5.522190124908920e-04
31		7.684375906440052e+06,0.000000000000000e+00
	1.011329860182697e+00,-2.653028597816019e-01
	4.636059542626297e-01,4.568319376091544e-01
	-9.263907685884799e-03,9.401275194095511e-03
	5.379967991468966e-03,2.050834386436194e-02
	-1.743318533018305e-03,-1.322270079793623e-03
	5.000000000000000e-03,0.000000000000000e+00
	9.461873038027670e-03,-9.601778239665737e-03
	-5.494386058429594e-03,-2.094627107821690e-02
	1.545353180875433e-03,1.522773125363848e-03
	3.371099533942322e-03,-8.843428659386731e-04
32		7.791645796604988e+06,0.000000000000000e+00
	9.774862839633472e-01,-3.756887272142374e-01
	5.198592406404006e-01,3.149140114320142e-01
	-6.475157617070027e-03,1.068917355099534e-02
	7.724787197008504e-03,2.009874926938007e-02
	-1.690469620723635e-03,-1.120187585521992e-03
	5.000000000000000e-03,0.000000000000000e+00
	6.432763102325659e-03,-1.061869933691339e-02
	-7.673544430943296e-03,-1.996664109752127e-02
	1.732864135468002e-03,1.049713371440047e-03
	3.258287613211158e-03,-1.252295757380791e-03
33		7.900413118633760e+06,0.000000000000000e+00
	9.107027024742443e-01,-4.792322733952376e-01
	5.251633786396499e-01,1.762049975352444e-01
	-3.673644963592770e-03,1.094897322998471e-02
	9.991369440003471e-03,1.898696656208998e-02
	-1.626787428999552e-03,-9.569039681077700e-04
	5.000000000000000e-03,0.000000000000000e+00
	3.549887797126823e-03,-1.057941925366109e-02
	-9.653832543917169e-03,-1.834642961888029e-02
	1.750544595465500e-03,5.873499917841481e-04
	3.035675674914148e-03,-1.597440911317459e-03
34		8.010698775896209e+06,0.000000000000000e+00
	8.184560156307122e-01,-5.596330707914711e-01
	4.907808293263054e-01,6.011167849422713e-02
	-1.270745016082527e-03,1.037497718376214e-02
	1.183049539386124e-02,1.730194412796794e-02
	-1.559671477374258e-03,-8.246389219292626e-04
	5.000000000000000e-03,0.000000000000000e+00
	1.194480395702433e-03,-9.750710523480300e-03
	-1.111835359000454e-02,-1.626113948059230e-02
	1.635936097754351e-03,2.003722616474238e-04
	2.728186718769041e-03,-1.865443569304904e-03
35		8.122523963562342e+06,0.000000000000000e+00
	7.151891828778405e-01,-6.098934695922081e-01
	4.342617839624833e-01,-2.472480638309027e-02
	5.299721638840698e-04,9.308330013704577e-03
	1.307296634846880e-02,1.532996266840230e-02
	-1.493213593402944e-03,-7.168610303211578e-04
	5.000000000000000e-03,0.000000000000000e+00
	-4.842978503560706e-04,-8.509052962106451e-03
	-1.195014388479788e-02,-1.401384546674943e-02
	1.447539279874944e-03,-8.241602127696757e-05
	2.383963942926135e-03,-2.032978231974027e-03
36		8.235910172675718e+06,0.000000000000000e+00
	6.140115174731567e-01,-6.322840557915628e-01
	3.711555877593321e-01,-7.977696493524744e-02
	1.733876936539333e-03,8.066715924903219e-03
	1.374209638795328e-02,1.334496003677683e-02
	-1.429549934692137e-03,-6.283623942706686e-04
	5.000000000000000e-03,0.000000000000000e+00
	-1.541512294378303e-03,-7.172430314181726e-03
	-1.221835138088927e-02,-1.186570891174230e-02
	1.237185292531107e-03,-2.659232164508248e-04
	2.046705058243856e-03,-2.107613519305209e-03
37		8.350879194283680e+06,0.000000000000000e+00
	5.227551655342022e-01,-6.336402938978342e-01
	3.111740262090117e-01,-1.115573971987080e-01
	2.458440675718351e-03,6.857482358580367e-03
	1.396381693558021e-02,1.152019135138129e-02
	-1.369687649983554e-03,-5.550844039048716e-04
	5.000000000000000e-03,0.000000000000000e+00
	-2.125999779764836e-03,-5.930539964013135e-03
	-1.207602180401110e-02,-9.963141442293381e-03
	1.037246754030039e-03,-3.718579906623599e-04
	1.742517218447341e-03,-2.112134312992781e-03
38		8.467453123625256e+06,0.000000000000000e+00
	4.443553534702657e-01,-6.212067431638103e-01
	2.586909299682389e-01,-1.272473895945496e-01
	2.843353401011436e-03,5.780470136791781e-03
	1.388091584066345e-02,9.929156971888379e-03
	-1.313995528530002e-03,-4.938912898924519e-04
	5.000000000000000e-03,0.000000000000000e+00
	-2.391660972375564e-03,-4.862420881584163e-03
	-1.167609588076101e-02,-8.352359117901461e-03
	8.623030998941297e-04,-4.241579653151654e-04
	1.481184511567553e-03,-2.070689143879368e-03
39		8.585654364377523e+06,0.000000000000000e+00
	3.787477661890884e-01,-6.007447111671773e-01
	2.147434896865124e-01,-1.326809826407283e-01
	3.006154096948411e-03,4.865444982888953e-03
	1.361107778034305e-02,8.581291202239598e-03
	-1.262490914689838e-03,-4.423626451607911e-04
	5.000000000000000e-03,0.000000000000000e+00
	-2.459474814546947e-03,-3.980812395592401e-03
	-1.113606124899652e-02,-7.021171476843131e-03
	7.158116322883747e-04,-4.422699421357611e-04
	1.262492553963628e-03,-2.002482370557258e-03
40		8.705505632961227e+06,0.000000000000000e+00
	3.245081032483496e-01,-5.762278143989462e-01
	1.787543719873363e-01,-1.319705390541962e-01
	3.031797219093036e-03,4.106575693150479e-03
	1.323784761189269e-02,7.455018158238090e-03
	-1.215005999142816e-03,-3.986241029866202e-04
	5.000000000000000e-03,0.000000000000000e+00
	-2.412639126574674e-03,-3.268049793316538e-03
	-1.053454728853001e-02,-5.932882879894889e-03
	5.958479066244545e-04,-4.399017968473208e-04
	1.081693677494499e-03,-1.920759381329821e-03
41		8.827029962906534e+06,0.000000000000000e+00
	2.798238431043499e-01,-5.501733699894191e-01
	1.495664296821034e-01,-1.277990425366893e-01
	2.976948760939985e-03,3.483997913306195e-03
	1.281572928546767e-02,6.518211924567515e-03
	-1.171283395777105e-03,-3.612159537215856e-04
	5.000000000000000e-03,0.000000000000000e+00
	-2.304220130769891e-03,-2.696785151128979e-03
	-9.919758824925939e-03,-5.045516644991036e-03
	4.985547656070115e-04,-4.259968084556309e-04
	9.327461436811663e-04,-1.833911233298064e-03
42		8.950250709279709e+06,0.000000000000000e+00
	2.429526859095301e-01,-5.240812003450092e-01
	1.259482558080886e-01,-1.218375413507407e-01
	2.877699795412105e-03,2.974791398063980e-03
	1.237835519571566e-02,5.738337188896547e-03
	-1.131030404798043e-03,-3.289935465276866e-04
	5.000000000000000e-03,0.000000000000000e+00
	-2.166496909974358e-03,-2.239672713700491e-03
	-9.319227886878808e-03,-4.320393400940870e-03
	4.198275193602953e-04,-4.061251378358024e-04
	8.098422863651005e-04,-1.746937334483364e-03
43		9.075191553171592e+06,0.000000000000000e+00
	2.123910857650386e-01,-4.987934767209971e-01
	1.067977283782192e-01,-1.150937685995064e-01
	2.756365275603233e-03,2.557684517563811e-03
	1.194553828292197e-02,5.086525715284741e-03
	-1.093949167537945e-03,-3.010525235382060e-04
	5.000000000000000e-03,0.000000000000000e+00
	-2.018408535992685e-03,-1.872986098693918e-03
	-8.747457736343377e-03,-3.724933316419623e-03
	3.559924279273974e-04,-3.836458953316879e-04
	7.079702858834621e-04,-1.662644922403324e-03
44		9.201876506248733e+06,0.000000000000000e+00
	1.869054069948695e-01,-4.747461058185939e-01
	9.119916924900846e-02,-1.081580670845963e-01
	2.626421812577904e-03,2.214605843660579e-03
	1.152834514676670e-02,4.538657642948835e-03
	-1.059752777879618e-03,-2.766728332486020e-04
	5.000000000000000e-03,0.000000000000000e+00
	-1.870666265528314e-03,-1.577406120129989e-03
	-8.211115947962547e-03,-3.232843456802125e-03
	3.039972308300282e-04,-3.605268902819877e-04
	6.230180233162316e-04,-1.582487019395313e-03
45		9.330329915368056e+06,0.000000000000000e+00
	1.655078960936065e-01,-4.521317536980449e-01
	7.841868424131263e-02,-1.013641884253373e-01
	2.495805323543467e-03,1.930837435145095e-03
	1.113246063873736e-02,4.075161993361836e-03
	-1.028173251808797e-03,-2.552767331210407e-04
	5.000000000000000e-03,0.000000000000000e+00
	-1.729027685872379e-03,-1.337680073939596e-03
	-7.712326877524849e-03,-2.823332880822727e-03
	2.613956141377088e-04,-3.378806280844575e-04
	5.516929869786883e-04,-1.507105845660150e-03
46		9.460576467255941e+06,0.000000000000000e+00
	1.474161998254301e-01,-4.310015411545302e-01
	6.787818102381012e-02,-9.489054308043367e-02
	2.369025259188400e-03,1.694638055310348e-03
	1.076032979259817e-02,3.680374141224828e-03
	-9.989648254059254e-04,-2.363971530850572e-04
	5.000000000000000e-03,0.000000000000000e+00
	-1.596321037195175e-03,-1.141939091957179e-03
	-7.250681950755533e-03,-2.480099490461452e-03
	2.262606034127004e-04,-3.163018102681123e-04
	4.913873327514339e-04,-1.436671803848434e-03
47		9.592641193252625e+06,0.000000000000000e+00
	1.320126552424478e-01,-4.113270915504190e-01
	5.912558271610171e-02,-8.882274203079388e-02
	2.248492975278290e-03,1.496727688842348e-03
	1.041249183201444e-02,3.341819011369532e-03
	-9.719046258019229e-04,-2.196537288722838e-04
	5.000000000000000e-03,0.000000000000000e+00
	-1.473673625196707e-03,-9.809981532007512e-04
	-6.824438641957861e-03,-2.190382435073752e-03
	1.970852757203390e-04,-2.960758067693129e-04
	4.400421841414926e-04,-1.371090305168063e-03
48		9.726549474122833e+06,0.000000000000000e+00
	1.188090527513044e-01,-3.930378289599676e-01
	5.180787777615047e-02,-8.319184627551325e-02
	2.135348290336040e-03,1.329792139350605e-03
	1.008840041039079e-02,3.049562174984644e-03
	-9.467919190541376e-04,-2.047345280516713e-04
	5.000000000000000e-03,0.000000000000000e+00
	-1.361249297202404e-03,-8.477514570472227e-04
	-6.431222505282611e-03,-1.944170606503089e-03
	1.726929259205016e-04,-2.773061542517109e-04
	3.960301758376815e-04,-1.310126096533226e-03
49		9.862327044933571e+06,0.000000000000000e+00
	1.074180593530259e-01,-3.760430997254257e-01
	4.564887561173384e-02,-7.799762445414003e-02
	2.029971471719875e-03,1.188060737188134e-03
	9.786923254676222e-03,2.795669708663552e-03
	-9.234466408281366e-04,-1.913820204137402e-04
	5.000000000000000e-03,0.000000000000000e+00
	-1.258687749597517e-03,-7.366866352605938e-04
	-6.068430093347779e-03,-1.733574729992539e-03
	1.521629187057795e-04,-2.599920815138001e-04
	3.580601978434196e-04,-1.253476999084752e-03
50		1.000000000000000e+07,0.000000000000000e+00
	9.753076680054301e-02,-3.602450748068142e-01
	4.043162935362901e-02,-7.322262508114062e-02
	1.932299552664358e-03,1.066965561900221e-03
	9.506643556241944e-03,2.573776300028348e-03
	-9.017076194735219e-04,-1.793822307295389e-04
	5.000000000000000e-03,0.000000000000000e+00
	-1.165364031036265e-03,-6.435079142335471e-04
	-5.733453731717275e-03,-1.552341614735173e-03
	1.347720978454300e-04,-2.440754169371354e-04
	3.251025560018100e-04,-1.200816916022714e-03
51		5.000000000000000e+06,0.000000000000000e+00
	7.417286306264247e-02,3.186206372874709e-01
	-2.765958326388458e-02,-5.864903608392898e-02
	7.738557997858548e-04,-3.649596030493350e-04
	-4.204100264214550e-03,9.786878711119413e-04
	1.185227634285811e-03,-3.199160652764943e-04
	5.000000000000000e-03,0.000000000000000e+00
	-1.866884823192050e-03,8.803724552722592e-04
	1.014208502162489e-02,-2.360672727346671e-03
	-9.219861087961526e-05,-1.954967869464299e-04
	2.472428768754749e-04,1.062068790958236e-03
52		5.069797398950146e+06,0.000000000000000e+00
	8.166823259269529e-02,3.326308289265234e-01
	-3.199386156800826e-02,-6.426169797678105e-02
	8.597495549227829e-04,-4.280420391831992e-04
	-4.450227991586908e-03,1.092629495228554e-03
	1.264280368216593e-03,-3.620646510504176e-04
	5.000000000000000e-03,0.000000000000000e+00
	-2.017383717912683e-03,1.004312350156220e-03
	1.044228091782785e-02,-2.563463576034050e-03
	-1.066462052266942e-04,-2.142056599226035e-04
	2.722274419756510e-04,1.108769429755078e-03
53		5.140569133280331e+06,0.000000000000000e+00
	9.035280353539912e-02,3.478005689521455e-01
	-3.720837105530359e-02,-7.054725386656135e-02
	9.570188146213711e-04,-5.047554541058772e-04
	-4.718138127003535e-03,1.225693817943931e-03
	1.351227843244026e-03,-4.120117314404305e-04
	5.000000000000000e-03,0.000000000000000e+00
	-2.184218754347718e-03,1.151924698434845e-03
	1.076818995846290e-02,-2.797040779224845e-03
	-1.240279035176786e-04,-2.351575128885379e-04
	3.011760117846637e-04,1.159335229840485e-03
54		5.212328804205606e+06,0.000000000000000e+00
	1.004927562028231e-01,3.642570056231365e-01
	-4.352844588006587e-02,-7.759057954465377e-02
	1.067259326240832e-03,-5.987342805647413e-04
	-5.010359359103899e-03,1.382279033183212e-03
	1.447052067939222e-03,-4.716698366066557e-04
	5.000000000000000e-03,0.000000000000000e+00
	-2.369216574579834e-03,1.329039382320243e-03
	1.112243557303371e-02,-3.068138888533657e-03
	-1.450948196002196e-04,-2.586352651488459e-04
	3.349758540094103e-04,1.214190018743788e-03
55		5.285090202806901e+06,0.000000000000000e+00
	1.124311557133132e-01,3.821346484818363e-01
	-5.124943804761889e-02,-8.547927009732458e-02
	1.192181471378587e-03,-7.147771663161215e-04
	-5.329641291661823e-03,1.568080079468158e-03
	1.552814943581050e-03,-5.435374394724474e-04
	5.000000000000000e-03,0.000000000000000e+00
	-2.574164954800908e-03,1.543245506112984e-03
	1.150768571619849e-02,-3.385399680546726e-03
	-1.708314601587296e-04,-2.849309003244153e-04
	3.747705190443775e-04,1.273782161606121e-03
56		5.358867312681464e+06,0.000000000000000e+00
	1.266145507483108e-01,4.015677870807010e-01
	-6.076191053972946e-02,-9.429549977281523e-02
	1.333500335537605e-03,-8.592777840708198e-04
	-5.678858271108996e-03,1.790547229863573e-03
	1.669609192058714e-03,-6.309107176034269e-04
	5.000000000000000e-03,0.000000000000000e+00
	-2.800569825797221e-03,1.804506834250298e-03
	1.192641896067334e-02,-3.760017237736003e-03
	-2.025397017990982e-04,-3.143183325760508e-04
	4.220485024943693e-04,1.338559290269004e-03
57		5.433674312630289e+06,0.000000000000000e+00
	1.436296567787216e-01,4.226748199518662e-01
	-7.258657550354311e-02,-1.040997393169874e-01
	1.492699559093693e-03,-1.040828247612901e-03
	-6.060788639066263e-03,2.059524132846606e-03
	1.798449570990466e-03,-7.381791382046446e-04
	5.000000000000000e-03,0.000000000000000e+00
	-3.049193878405682e-03,2.126006516874171e-03
	1.238047268746099e-02,-4.206619337557472e-03
	-2.419552516784770e-04,-3.469991310566248e-04
	4.787655225957387e-04,1.408916066506221e-03