Title: C:\Users\georg\AppData\Local\LTspice\examples\Educational\Transformer2.net
Date: Thu Jul  9 01:13:11 2026
Plotname: Transient Analysis
Flags: real forward stepped
No. Variables: 13
No. Points:         3216
Offset:    0.0000000000000000e+00
Command: Linear Technology Corporation LTspice
Variables:
	0	time	time
	1	V(a)	voltage
	2	V(b)	voltage
	3	V(in)	voltage
	4	V(n001)	voltage
	5	I(L1)	device_current
	6	I(L2)	device_current
	7	I(L3)	device_current
	8	I(R1)	device_current
	9	I(V1)	device_current
	10	L1:flux	voltage
	11	L2:flux	voltage
	12	L3:flux	voltage
Values:
0		0.000000000000000e+00
	0.000000000000000e+00
	0.000000000000000e+00
	0.000000000000000e+00
	0.000000000000000e+00
	0.000000000000000e+00
	0.000000000000000e+00
	0.000000000000000e+00
	0.000000000000000e+00
	0.000000000000000e+00
	0.000000000000000e+00
	0.000000000000000e+00
	0.000000000000000e+00
1		9.765624723809263e-13
	-1.381067338125041e-04
	-1.953124160136707e-04
	9.765624723809263e-05
	9.765620840449139e-05
	-3.883360123356420e-12
	-4.391542463670763e-22
	-7.372540034546877e-22
	-3.883360123811513e-12
	-3.883360123472699e-12
	-9.536738832283707e-17
	-1.348698534250677e-16
	-1.907347758690021e-16
2		1.386162687254812e-12
	-1.960329262494761e-04
	-2.772324229750802e-04
	1.386162687254812e-04
	1.386162119261559e-04
	-5.679932530020167e-12
	-4.863906820136332e-22
	-3.265130880113811e-22
	-5.679932528002488e-12
	-5.679932527324861e-12
	-1.521446185127948e-16
	-2.151649821396114e-16
	-3.042892358896031e-16
3		2.205363117002584e-12
	-3.118853063781057e-04
	-4.410724301870105e-04
	2.205363117002584e-04
	2.205362156140410e-04
	-9.608621747198102e-12
	-2.265280353658174e-21
	-1.622222754148313e-21
	-9.608621746024816e-12
	-9.608621746024816e-12
	-2.992535300057373e-16
	-4.232083993632736e-16
	-5.985070580897506e-16
4		3.843763976498128e-12
	-5.435900381634785e-04
	-7.687524043455435e-04
	3.843763976498128e-04
	3.843762028571479e-04
	-1.947926649316834e-11
	2.705166561971099e-21
	-3.374252279949930e-21
	-1.947926649083394e-11
	-1.947926648676818e-11
	-7.947980431770995e-16
	-1.124014169253867e-15
	-1.589596082458346e-15
5		7.120565695489216e-12
	-1.006999387846709e-03
	-1.424112191601341e-03
	7.120565695489216e-04
	7.120560968127262e-04
	-4.727361953749154e-11
	2.713099094798512e-21
	5.220858680466405e-21
	-4.727361953499667e-11
	-4.727361953499667e-11
	-2.591193665334897e-15
	-3.664501217566363e-15
	-5.182387321215070e-15
6		1.367416913347139e-11
	-1.933817631663290e-03
	-2.734831121868117e-03
	1.367416913347139e-03
	1.367415562601474e-03
	-1.350745665600331e-10
	3.653807015250175e-21
	1.310309020246548e-21
	-1.350745665491815e-10
	-1.350745665491815e-10
	-9.405209973496596e-15
	-1.330097548238316e-14
	-1.881041991997828e-14
7		2.678137600943574e-11
	-3.787452297098427e-03
	-5.356266405424508e-03
	2.678137600943574e-03
	2.678133205690385e-03
	-4.395253188641647e-10
	-3.143048836392823e-20
	-2.391255881592487e-20
	-4.395253188748533e-10
	-4.395253189182213e-10
	-3.591813228989869e-14
	-5.079590975732745e-14
	-7.183626449189232e-14
8		5.299578976136445e-11
	-7.494714339188521e-03
	-1.059912666464552e-02
	5.299578976136444e-03
	5.299563337922319e-03
	-1.563821412602634e-09
	-3.268106589666050e-20
	-3.876607143889053e-20
	-1.563821412555594e-09
	-1.563821412642330e-09
	-1.404834512806962e-13
	-1.986736018689827e-13
	-2.809669022486281e-13
9		1.054246172652218e-10
	-1.490920926834358e-02
	-2.108480595165555e-02
	1.054246172652218e-02
	1.054240298667018e-02
	-5.873985200500276e-09
	-1.394588643401986e-19
	-2.561670435856183e-20
	-5.873985200327559e-09
	-5.873985200370926e-09
	-5.557713111576851e-13
	-7.859793249863689e-13
	-1.111542621140573e-12
10		2.102822722729367e-10
	-2.973808250731739e-02
	-4.205599960102863e-02
	2.102822722729367e-02
	2.102799982184231e-02
	-2.274054513592931e-08
	-1.234209050126523e-19
	-1.403275720044412e-20
	-2.274054513584645e-08
	-2.274054513575971e-08
	-2.210970514232481e-12
	-3.126784484018593e-12
	-4.421941023916854e-12
11		4.199975822883663e-10
	-5.939536251403400e-02
	-8.399772720983341e-02
	4.199975822883663e-02
	4.199886364721555e-02
	-8.945816210820004e-08
	-7.090333716863130e-20
	-1.605207051180857e-19
	-8.945816210789715e-08
	-8.945816210807062e-08
	-8.819819620089294e-12
	-1.247310851176330e-11
	-1.763963922228696e-11
12		8.394282023192255e-10
	-1.187080566914552e-01
	-1.678785437368494e-01
	8.394282023192255e-02
	8.393927195266397e-02
	-3.548279258573001e-07
	3.050191285661725e-19
	-8.794398157025966e-20
	-3.548279258580589e-07
	-3.548279258573650e-07
	-3.523097477018325e-11
	-4.982412228543724e-11
	-7.046194946940091e-11
13		1.678289442380944e-09
	-2.373259820935270e-01
	-3.356296225818585e-01
	1.678289442380944e-01
	1.678148114590440e-01
	-1.413277905043645e-06
	1.840245252358972e-19
	-1.112586668410108e-18
	-1.413277905043531e-06
	-1.413277905044918e-06
	-1.408243460708566e-10
	-1.991556999258600e-10
	-2.816486918590576e-10
14		3.356011922504381e-09
	-4.745319842165168e-01
	-6.710895678621688e-01
	3.356011922504381e-01
	3.355447842669291e-01
	-5.640798350900233e-06
	1.617720019102100e-18
	-8.683984020910856e-19
	-5.640798350892151e-06
	-5.640798350886600e-06
	-5.630732007385118e-10
	-7.963057562955023e-10
	-1.126146400348864e-09
15		6.711456882751255e-09
	-9.488246187725737e-01
	-1.341840644188365e+00
	6.711456882751254e-01
	6.709203227654024e-01
	-2.253655097230725e-05
	-6.432761112240119e-18
	-2.348388920095197e-18
	-2.253655097230745e-05
	-2.253655097229912e-05
	-2.251642336266495e-09
	-3.184303126374370e-09
	-4.503284668025681e-09
16		1.000000000000000e-08
	-1.413506275236761e+00
	-1.998999744949298e+00
	1.000000000000000e+00
	9.994998734744488e-01
	-5.001265255512937e-05
	3.394912188498299e-18
	3.048846289985713e-18
	-5.001265255512033e-05
	-5.001265255510923e-05
	-4.998266755895426e-09
	-7.068616627473029e-09
	-9.996533501788325e-09
17		1.409126464319627e-08
	-1.412928090861647e+00
	-1.998182068764456e+00
	1.000000000000000e+00
	9.990910353810195e-01
	-9.089646189805545e-05
	1.658875149708757e-18
	4.017246485436244e-18
	-9.089646189804902e-05
	-9.089646189805456e-05
	-9.086648916702364e-09
	-1.285046212166858e-08
	-1.817329781522544e-08
18		1.863373778693402e-08
	-1.412286418001710e+00
	-1.997274606303323e+00
	1.000000000000000e+00
	9.986373041505989e-01
	-1.362695849401163e-04
	-1.204915617125573e-17
	-2.898181958854080e-18
	-1.362695849401075e-04
	-1.362695849401047e-04
	-1.362396258210546e-08
	-1.926719263760568e-08
	-2.724792513695700e-08
19		2.483944287441105e-08
	-1.411410266821282e+00
	-1.996035541421269e+00
	1.000000000000000e+00
	9.980177717083488e-01
	-1.982228291651272e-04
	-1.913158741813683e-18
	-4.783285215831802e-18
	-1.982228291651178e-04
	-1.982228291651233e-04
	-1.981928886320281e-08
	-2.802870707889852e-08
	-3.963857768676107e-08
20		3.725085304936510e-08
	-1.409659594586526e+00
	-1.993559717003589e+00
	1.000000000000000e+00
	9.967798594988756e-01
	-3.220140501124483e-04
	-1.376579417031968e-17
	-1.731459421279673e-18
	-3.220140501124403e-04
	-3.220140501124652e-04
	-3.219841467167262e-08
	-4.553543467005261e-08
	-6.439682927894243e-08
21		6.207367339927321e-08
	-1.406164760530625e+00
	-1.988617275283473e+00
	1.000000000000000e+00
	9.943086386357436e-01
	-5.691361364256487e-04
	-4.493346830603390e-18
	-5.160558157314175e-18
	-5.691361364256409e-04
	-5.691361364256464e-04
	-5.691063071665461e-08
	-8.048378572221181e-08
	-1.138212613194820e-07
22		1.117193140990894e-07
	-1.399201053457250e+00
	-1.978769106295857e+00
	1.000000000000000e+00
	9.893845541376141e-01
	-1.061544586238595e-03
	-6.069007610689313e-18
	-7.089770820456288e-18
	-1.061544586238594e-03
	-1.061544586238597e-03
	-1.061514904702033e-07
	-1.501208773389548e-07
	-2.123029807280976e-07
23		2.093755640990894e-07
	-1.385603379641413e+00
	-1.959539091568683e+00
	1.000000000000000e+00
	9.797695467638086e-01
	-2.023045323619151e-03
	-1.927753516541569e-18
	-7.790286092989683e-18
	-2.023045323619144e-03
	-2.023045323619146e-03
	-2.023015930532806e-07
	-2.860976562995303e-07
	-4.046031857019522e-07
24		3.070318140990894e-07
	-1.372137850330750e+00
	-1.940495957392908e+00
	1.000000000000000e+00
	9.702479796670033e-01
	-2.975202033299683e-03
	1.165159166216682e-18
	-1.064034930125033e-17
	-2.975202033299673e-03
	-2.975202033299679e-03
	-2.975172925860351e-07
	-4.207529897949380e-07
	-5.950345845770299e-07
25		4.046880640990894e-07
	-1.358803181325862e+00
	-1.921637887636354e+00
	1.000000000000000e+00
	9.608189447786936e-01
	-3.918105522130651e-03
	-1.209028690003432e-18
	-2.367774724930990e-18
	-3.918105522130644e-03
	-3.918105522130649e-03
	-3.918076697562352e-07
	-5.540997198569628e-07
	-7.836153387288494e-07
26		5.023443140990894e-07
	-1.345598100900669e+00
	-1.902963083806717e+00
	1.000000000000000e+00
	9.514815428551396e-01
	-4.851845714486037e-03
	-6.446733019966753e-18
	-5.976243440894554e-18
	-4.851845714486037e-03
	-4.851845714486033e-03
	-4.851817170039810e-07
	-6.861505637163402e-07
	-9.703634330375929e-07
27		6.000005640990894e-07
	-1.332521349694685e+00
	-1.884469764899349e+00
	1.000000000000000e+00
	9.422348833916042e-01
	-5.776511660839580e-03
	9.494388169870390e-18
	-1.350260680610123e-18
	-5.776511660839579e-03
	-5.776511660839548e-03
	-5.776483393793105e-07
	-8.169181150155952e-07
	-1.155296677603319e-06
28		6.976568140990895e-07
	-1.319571680579346e+00
	-1.866156167208090e+00
	1.000000000000000e+00
	9.330780845374281e-01
	-6.692191546257193e-03
	-4.380719572759395e-18
	-1.807481455476359e-18
	-6.692191546257187e-03
	-6.692191546257192e-03
	-6.692163553914704e-07
	-9.464148450100919e-07
	-1.338432709444503e-06
29		7.953130640990895e-07
	-1.306747858552679e+00
	-1.848020544176441e+00
	1.000000000000000e+00
	9.240102730119252e-01
	-7.598972698807485e-03
	-7.044409890025105e-18
	-4.950083704811283e-18
	-7.598972698807483e-03
	-7.598972698807480e-03
	-7.598944978499352e-07
	-1.074653103757414e-06
	-1.519788994180076e-06
30		8.929693140990895e-07
	-1.294048660607876e+00
	-1.830061166211539e+00
	1.000000000000000e+00
	9.150305840211002e-01
	-8.496941597889994e-03
	-3.567057572957322e-18
	1.847622876242332e-18
	-8.496941597889985e-03
	-8.496941597889968e-03
	-8.496914146972511e-07
	-1.201645121295185e-06
	-1.699382827695114e-06
31		9.906255640990896e-07
	-1.281472875630290e+00
	-1.812276320538679e+00
	1.000000000000000e+00
	9.061381611751733e-01
	-9.386183882482673e-03
	-2.968703241977288e-18
	-1.514103653260951e-18
	-9.386183882482670e-03
	-9.386183882482663e-03
	-9.386156698337881e-07
	-1.327403008807443e-06
	-1.877231337790339e-06
32		1.088281814099090e-06
	-1.269019304268365e+00
	-1.794664311018553e+00
	1.000000000000000e+00
	8.973321564069061e-01
	-1.026678435930939e-02
	-3.695905015432869e-18
	-7.827682928483206e-18
	-1.026678435930939e-02
	-1.026678435930939e-02
	-1.026675743934476e-06
	-1.451938759779680e-06
	-2.053351485815595e-06
33		1.185938064099090e-06
	-1.256686758832720e+00
	-1.777223458004815e+00
	1.000000000000000e+00
	8.886117298907215e-01
	-1.113882701092786e-02
	-6.994931254504633e-18
	-7.103518562236919e-18
	-1.113882701092785e-02
	-1.113882701092786e-02
	-1.113880035257602e-06
	-1.575264251142654e-06
	-2.227760068287439e-06
34		1.283594314099090e-06
	-1.244474063169530e+00
	-1.759952098164688e+00
	1.000000000000000e+00
	8.799760499626101e-01
	-1.200239500373899e-02
	-2.400903308463739e-18
	-2.873481518582634e-18
	-1.200239500373899e-02
	-1.200239500373898e-02
	-1.200236860445753e-06
	-1.697391244405094e-06
	-2.400473718491028e-06
35		1.381250564099090e-06
	-1.232380052561560e+00
	-1.742848584339369e+00
	1.000000000000000e+00
	8.714242930408158e-01
	-1.285757069591842e-02
	-8.876313025906480e-18
	-3.219380326611483e-18
	-1.285757069591842e-02
	-1.285757069591842e-02
	-1.285754455318968e-06
	-1.818331386775381e-06
	-2.571508908066422e-06
36		1.478906814099090e-06
	-1.220403573604062e+00
	-1.725911285368084e+00
	1.000000000000000e+00
	8.629556435472892e-01
	-1.370443564527109e-02
	-4.801578315078413e-18
	-6.948426333286289e-18
	-1.370443564527109e-02
	-1.370443564527109e-02
	-1.370440975660184e-06
	-1.938096212272349e-06
	-2.740881948579481e-06
37		1.576563064099090e-06
	-1.208543484107690e+00
	-1.709138585951270e+00
	1.000000000000000e+00
	8.545692938299069e-01
	-1.454307061700932e-02
	-3.817427773584260e-18
	-4.790426266059973e-18
	-1.454307061700931e-02
	-1.454307061700931e-02
	-1.454304497993055e-06
	-2.056697142825274e-06
	-2.908608993077496e-06
38		1.674219314099090e-06
	-1.196798652976562e+00
	-1.692528886477770e+00
	1.000000000000000e+00
	8.462644440854469e-01
	-1.537355559145532e-02
	1.295900852294976e-18
	-4.340294429043316e-18
	-1.537355559145531e-02
	-1.537355559145530e-02
	-1.537353020352203e-06
	-2.174145489363178e-06
	-3.074706037629696e-06
39		1.771875564099090e-06
	-1.185167960113656e+00
	-1.676080602891154e+00
	1.000000000000000e+00
	8.380403022833107e-01
	-1.619596977166893e-02
	-2.541648089689636e-18
	-7.223506900352024e-18
	-1.619596977166893e-02
	-1.619596977166894e-02
	-1.619594463045991e-06
	-2.290452452893555e-06
	-3.239188922852789e-06
40		1.869531814099090e-06
	-1.173650296300443e+00
	-1.659792166519607e+00
	1.000000000000000e+00
	8.298960840899876e-01
	-1.701039159100124e-02
	4.641318688841164e-19
	-1.383230445465262e-18
	-1.701039159100124e-02
	-1.701039159100123e-02
	-1.701036669411875e-06
	-2.405629125570601e-06
	-3.402073335421672e-06
41		1.967188064099090e-06
	-1.162244563104798e+00
	-1.643662023945446e+00
	1.000000000000000e+00
	8.218310127942541e-01
	-1.781689872057460e-02
	-6.900506106039867e-20
	-4.768532449606919e-18
	-1.781689872057459e-02
	-1.781689872057461e-02
	-1.781687406564426e-06
	-2.519686491753068e-06
	-3.563374809565472e-06
42		2.064844314099090e-06
	-1.150949672762635e+00
	-1.627688636837940e+00
	1.000000000000000e+00
	8.138443192330973e-01
	-1.861556807669028e-02
	1.525450916903954e-18
	-4.150057777407146e-18
	-1.861556807669027e-02
	-1.861556807669026e-02
	-1.861554366136074e-06
	-2.632635429051847e-06
	-3.723108728549034e-06
43		2.162500564099090e-06
	-1.139764548087508e+00
	-1.611870481825458e+00
	1.000000000000000e+00
	8.059352417183623e-01
	-1.940647582816378e-02
	-3.408397714024751e-19
	-4.563158392761028e-18
	-1.940647582816377e-02
	-1.940647582816377e-02
	-1.940645165010658e-06
	-2.744486709367354e-06
	-3.881290326140020e-06
44		2.260156814099090e-06
	-1.128688122354744e+00
	-1.596206050331472e+00
	1.000000000000000e+00
	7.981030259641085e-01
	-2.018969740358915e-02
	-1.115032848276581e-18
	-8.923059483863689e-18
	-2.018969740358915e-02
	-2.018969740358915e-02
	-2.018967346049842e-06
	-2.855250999916846e-06
	-4.037934688061745e-06
45		2.357813064099089e-06
	-1.117719339212707e+00
	-1.580693848449256e+00
	1.000000000000000e+00
	7.903469250146751e-01
	-2.096530749853249e-02
	-6.476092141448097e-18
	-2.992000783929844e-18
	-2.096530749853250e-02
	-2.096530749853248e-02
	-2.096528378812479e-06
	-2.964938864251743e-06
	-4.193056753431896e-06
46		2.455469314099089e-06
	-1.106857152569317e+00
	-1.565332396781011e+00
	1.000000000000000e+00
	7.826661991734429e-01
	-2.173338008265571e-02
	2.927055525315856e-18
	-7.265297719259428e-18
	-2.173338008265571e-02
	-2.173338008265571e-02
	-2.173335660266977e-06
	-3.073560763265081e-06
	-4.346671316187279e-06
47		2.553125564099089e-06
	-1.096100526504715e+00
	-1.550120230315039e+00
	1.000000000000000e+00
	7.750601159322906e-01
	-2.249398840677094e-02
	-4.415623285886683e-18
	-1.875684151342581e-18
	-2.249398840677094e-02
	-2.249398840677093e-02
	-2.249396515496750e-06
	-3.181127056189156e-06
	-4.498793026494703e-06
48		2.650781814099089e-06
	-1.085448435160178e+00
	-1.535055898267871e+00
	1.000000000000000e+00
	7.675279499017351e-01
	-2.324720500982649e-02
	7.641368767311762e-18
	-9.609785655585825e-18
	-2.324720500982649e-02
	-2.324720500982647e-02
	-2.324718198398803e-06
	-3.287648001583483e-06
	-4.649436392148164e-06
49		2.748438064099089e-06
	-1.074899862652652e+00
	-1.520137963963950e+00
	1.000000000000000e+00
	7.600689827417521e-01
	-2.399310172582480e-02
	-2.390400596226153e-18
	-6.447801737318171e-18
	-2.399310172582480e-02
	-2.399310172582479e-02
	-2.399307892375536e-06
	-3.393133758313152e-06
	-4.798615779952451e-06
50		2.846094314099089e-06
	-1.064453802965264e+00
	-1.505365004680640e+00
	1.000000000000000e+00
	7.526825030932671e-01
	-2.473174969067329e-02
	-4.301785862806523e-19
	-8.303198456957277e-18
	-2.473174969067329e-02
	-2.473174969067329e-02
	-2.473172711019824e-06
	-3.497594386517674e-06
	-4.946345417093299e-06
51		2.943750564099088e-06
	-1.054109259864219e+00
	-1.490735611530452e+00
	1.000000000000000e+00
	7.453678065103145e-01
	-2.546321934896855e-02
	5.626293929406032e-18
	-1.194907062585926e-18
	-2.546321934896855e-02
	-2.546321934896854e-02
	-2.546319698793438e-06
	-3.601039848570412e-06
	-5.092639392494233e-06
52		3.041406814099088e-06
	-1.043865246790826e+00
	-1.476248389308918e+00
	1.000000000000000e+00
	7.381241953928550e-01
	-2.618758046071450e-02
	1.141117161712828e-18
	-7.033053527395365e-18
	-2.618758046071450e-02
	-2.618758046071450e-02
	-2.618755831698868e-06
	-3.703480010028690e-06
	-5.237511658160220e-06
53		3.139063064099088e-06
	-1.033720786780423e+00
	-1.461901956379148e+00
	1.000000000000000e+00
	7.309509789202440e-01
	-2.690490210797560e-02
	6.772970572015829e-18
	-1.747300757190676e-18
	-2.690490210797561e-02
	-2.690490210797561e-02
	-2.690488017944625e-06
	-3.804924640574670e-06
	-5.380976030508271e-06
54		3.236719314099088e-06
	-1.023674912356169e+00
	-1.447694944522499e+00
	1.000000000000000e+00
	7.238474729853506e-01
	-2.761525270146495e-02
	-4.258556576813889e-18
	-1.751811373070928e-18
	-2.761525270146495e-02
	-2.761525270146495e-02
	-2.761523098604079e-06
	-3.905383414947077e-06
	-5.523046191685108e-06
55		3.334375564099088e-06
	-1.013726665449854e+00
	-1.433625998825590e+00
	1.000000000000000e+00
	7.168130001293123e-01
	-2.831869998706877e-02
	-8.632539590664652e-18
	-7.454243141959403e-18
	-2.831869998706878e-02
	-2.831869998706878e-02
	-2.831867848267882e-06
	-4.004865913863885e-06
	-5.663735690872025e-06
56		3.432031814099088e-06
	-1.003875097297317e+00
	-1.419693777533592e+00
	1.000000000000000e+00
	7.098468894769272e-01
	-2.901531105230728e-02
	-1.792698083568811e-18
	-2.395845926198589e-18
	-2.901531105230728e-02
	-2.901531105230729e-02
	-2.901528975690063e-06
	-4.103381624936017e-06
	-5.803057945577064e-06
57		3.529688064099087e-06
	-9.941192683613431e-01
	-1.405896951940056e+00
	1.000000000000000e+00
	7.029484766726735e-01
	-2.970515233273265e-02
	2.438077632372484e-18
	-1.548285237713480e-18
	-2.970515233273266e-02
	-2.970515233273265e-02
	-2.970513124427838e-06
	-4.200939943572182e-06
	-5.941026242914645e-06
58		3.627344314099087e-06
	-9.844582482285829e-01
	-1.392234206241911e+00
	1.000000000000000e+00
	6.961171038173490e-01
	-3.038828961826510e-02
	1.287225382030520e-19
	-8.127255486306023e-18
	-3.038828961826510e-02
	-3.038828961826510e-02
	-3.038826873475203e-06
	-4.297550173874909e-06
	-6.077653740872749e-06
59		3.725000564099087e-06
	-9.748911155343472e-01
	-1.378704237432548e+00
	1.000000000000000e+00
	6.893521194053271e-01
	-3.106478805946728e-02
	-2.383974230047228e-18
	-6.386283074391684e-18
	-3.106478805946729e-02
	-3.106478805946729e-02
	-3.106476737890374e-06
	-4.393221529527874e-06
	-6.212953469567792e-06
60		3.822656814099087e-06
	-9.654169578610567e-01
	-1.365305755158956e+00
	1.000000000000000e+00
	6.826528782624249e-01
	-3.173471217375751e-02
	-1.865411395315285e-18
	-6.957649810706562e-18
	-3.173471217375751e-02
	-3.173471217375752e-02
	-3.173469169417121e-06
	-4.487963134674607e-06
	-6.346938332487299e-06
61		3.920313064099087e-06
	-9.560348716652554e-01
	-1.352037481617344e+00
	1.000000000000000e+00
	6.760187414843710e-01
	-3.239812585156290e-02
	-4.757132246404713e-18
	-6.990435941465714e-18
	-3.239812585156290e-02
	-3.239812585156290e-02
	-3.239810557100070e-06
	-4.581784024788666e-06
	-6.479621107720516e-06
62		4.017969314099087e-06
	-9.467439621768824e-01
	-1.338898151412126e+00
	1.000000000000000e+00
	6.694490763758749e-01
	-3.305509236241250e-02
	1.082384856679725e-18
	-9.424139029168711e-18
	-3.305509236241251e-02
	-3.305509236241254e-02
	-3.305507227894025e-06
	-4.674693147535329e-06
	-6.611014449177034e-06
63		4.115625564099088e-06
	-9.375433433292005e-01
	-1.325886511455308e+00
	1.000000000000000e+00
	6.629432563902862e-01
	-3.370567436097138e-02
	-1.844165261281861e-18
	-2.269161147434562e-18
	-3.370567436097138e-02
	-3.370567436097138e-02
	-3.370565447267372e-06
	-4.766699363624954e-06
	-6.741130887793610e-06
64		4.213281814099088e-06
	-9.284321376582666e-01
	-1.313001320826057e+00
	1.000000000000000e+00
	6.565006610698416e-01
	-3.434993389301583e-02
	2.279773461103311e-18
	-9.353466371993406e-18
	-3.434993389301584e-02
	-3.434993389301584e-02
	-3.434991419799604e-06
	-4.857811447658000e-06
	-6.869982832729222e-06
65		4.310938064099088e-06
	-9.194094762358012e-01
	-1.300241350673357e+00
	1.000000000000000e+00
	6.501206759864919e-01
	-3.498793240135082e-02
	4.702273628180196e-19
	-4.287014485017857e-18
	-3.498793240135081e-02
	-3.498793240135081e-02
	-3.498791289773057e-06
	-4.948038088961870e-06
	-6.997582572548529e-06
66		4.408594314099088e-06
	-9.104744985695122e-01
	-1.287605384078363e+00
	1.000000000000000e+00
	6.438026926833037e-01
	-3.561973073166963e-02
	1.332836121006693e-20
	2.543497665539305e-20
	-3.561973073166963e-02
	-3.561973073166963e-02
	-3.561971141758887e-06
	-5.037387892419607e-06
	-7.123942276393829e-06
67		4.506250564099089e-06
	-9.016263525379536e-01
	-1.275092215958446e+00
	1.000000000000000e+00
	6.375461086164326e-01
	-3.624538913835675e-02
	1.035452283084692e-18
	-9.940651283162136e-19
	-3.624538913835675e-02
	-3.624538913835675e-02
	-3.624537001197351e-06
	-5.125869379290530e-06
	-7.249073995145626e-06
68		4.603906814099089e-06
	-8.928641942923417e-01
	-1.262700652931940e+00
	1.000000000000000e+00
	6.313503270976569e-01
	-3.686496729023431e-02
	3.933022955466095e-18
	-8.165046886951733e-18
	-3.686496729023431e-02
	-3.686496729023432e-02
	-3.686494834972453e-06
	-5.213490988022916e-06
	-7.372989662571914e-06
69		4.701563064099089e-06
	-8.841871881929475e-01
	-1.250429513225168e+00
	1.000000000000000e+00
	6.252147572374727e-01
	-3.747852427625273e-02
	-4.187233755677117e-18
	-1.564233693513809e-18
	-3.747852427625274e-02
	-3.747852427625274e-02
	-3.747850551981004e-06
	-5.300261075058763e-06
	-7.495701096466304e-06
70		4.799219314099089e-06
	-8.755945067125915e-01
	-1.238277626538582e+00
	1.000000000000000e+00
	6.191388138887410e-01
	-3.808611861112590e-02
	-4.535042523740351e-19
	-5.761664104601867e-18
	-3.808611861112590e-02
	-3.808611861112590e-02
	-3.808610003696152e-06
	-5.386187915630751e-06
	-7.617219999775082e-06
71		4.896875564099090e-06
	-8.670853303743423e-01
	-1.226243833956148e+00
	1.000000000000000e+00
	6.131219175908817e-01
	-3.868780824091184e-02
	4.693676740073933e-18
	1.104571495069623e-18
	-3.868780824091183e-02
	-3.868780824091181e-02
	-3.868778984725432e-06
	-5.471279704551437e-06
	-7.737557961713301e-06
72		4.994531814099090e-06
	-8.586588476569590e-01
	-1.214326987814358e+00
	1.000000000000000e+00
	6.071634945146122e-01
	-3.928365054853879e-02
	2.668687315346143e-18
	6.730805867471551e-19
	-3.928365054853879e-02
	-3.928365054853879e-02
	-3.928363233363397e-06
	-5.555544556994793e-06
	-7.856726458870065e-06
73		5.009999999999999e-06
	-8.573316850279586e-01
	-1.212450096424356e+00
	1.000000000000000e+00
	6.062250488182306e-01
	-3.937749511817694e-02
	-1.082283113464381e-18
	-2.344151273817088e-19
	-3.937749511817695e-02
	-3.937749511817695e-02
	-3.937747693142550e-06
	-5.568816187276745e-06
	-7.875495378409602e-06
74		5.019999999999999e-06
	5.570316016571758e-01
	7.877616457371480e-01
	0.000000000000000e+00
	-3.938808232627860e-01
	-3.938808232627860e-02
	-2.185088164335897e-18
	3.258641627205700e-18
	-3.938808232627861e-02
	-3.938808232627861e-02
	-3.938809414270327e-06
	-5.570317687693608e-06
	-7.877618820663038e-06
75		5.117656250000000e-06
	5.516182738113999e-01
	7.801060440810831e-01
	0.000000000000000e+00
	-3.900530224302031e-01
	-3.900530224302030e-02
	2.650964970722194e-18
	1.352673152866634e-18
	-3.900530224302031e-02
	-3.900530224302029e-02
	-3.900531394461096e-06
	-5.516184392992739e-06
	-7.801062781121131e-06
76		5.206718295281413e-06
	5.467272304262507e-01
	7.731890641910738e-01
	0.000000000000000e+00
	-3.865945324825832e-01
	-3.865945324825832e-02
	1.355544710363112e-18
	3.186750532988104e-19
	-3.865945324825833e-02
	-3.865945324825833e-02
	-3.865946484609429e-06
	-5.467273944475970e-06
	-7.731892961486966e-06
77		5.304374545281413e-06
	5.414140422132278e-01
	7.656750813613389e-01
	0.000000000000000e+00
	-3.828375410630712e-01
	-3.828375410630713e-02
	7.101502723084128e-19
	2.986372647042033e-18
	-3.828375410630713e-02
	-3.828375410630713e-02
	-3.828376559143332e-06
	-5.414142046397605e-06
	-7.656753110629915e-06
78		5.402030795281413e-06
	5.361524884653823e-01
	7.582341206912915e-01
	0.000000000000000e+00
	-3.791170607251710e-01
	-3.791170607251710e-02
	4.346081384608737e-19
	1.931032046899423e-18
	-3.791170607251710e-02
	-3.791170607251710e-02
	-3.791171744602890e-06
	-5.361526493141550e-06
	-7.582343481623439e-06
79		5.499687045281414e-06
	5.309420673931431e-01
	7.508654725458843e-01
	0.000000000000000e+00
	-3.754327366479822e-01
	-3.754327366479822e-02
	3.460654022042176e-18
	3.118062282102313e-18
	-3.754327366479823e-02
	-3.754327366479822e-02
	-3.754328492778029e-06
	-5.309422266781009e-06
	-7.508656978047404e-06
80		5.597343295281414e-06
	5.257822820777651e-01
	7.435684341732528e-01
	0.000000000000000e+00
	-3.717842174588135e-01
	-3.717842174588135e-02
	2.379687780112979e-18
	2.175184124066647e-18
	-3.717842174588135e-02
	-3.717842174588135e-02
	-3.717843289940784e-06
	-5.257824398154242e-06
	-7.435686572445885e-06
81		5.694999545281414e-06
	5.206726404349926e-01
	7.363423096637737e-01
	0.000000000000000e+00
	-3.681711551996733e-01
	-3.681711551996732e-02
	3.547212682881562e-18
	1.848294546899725e-18
	-3.681711551996732e-02
	-3.681711551996732e-02
	-3.681712656510195e-06
	-5.206727966390669e-06
	-7.363425305656968e-06
82		5.792655795281414e-06
	5.156126551574339e-01
	7.291864098581773e-01
	0.000000000000000e+00
	-3.645932052940849e-01
	-3.645932052940849e-02
	2.508584026244667e-18
	1.189053312186042e-18
	-3.645932052940849e-02
	-3.645932052940849e-02
	-3.645933146720462e-06
	-5.156128098441567e-06
	-7.291866286149062e-06
83		5.890312045281415e-06
	5.106018436787503e-01
	7.221000523071887e-01
	0.000000000000000e+00
	-3.610500265142246e-01
	-3.610500265142245e-02
	-2.302260366055565e-18
	2.988145295094735e-18
	-3.610500265142246e-02
	-3.610500265142246e-02
	-3.610501348292323e-06
	-5.106019968615332e-06
	-7.221002689363646e-06
84		5.987968295281415e-06
	5.056397281169546e-01
	7.150825611808344e-01
	0.000000000000000e+00
	-3.575412809483786e-01
	-3.575412809483786e-02
	5.620344846440551e-19
	2.719293604836678e-18
	-3.575412809483786e-02
	-3.575412809483786e-02
	-3.575413882107627e-06
	-5.056398798117248e-06
	-7.150827757064429e-06
85		6.085624545281415e-06
	5.007258352394097e-01
	7.081332672301002e-01
	0.000000000000000e+00
	-3.540666339687167e-01
	-3.540666339687167e-02
	6.927637630131607e-19
	2.567752255460585e-18
	-3.540666339687167e-02
	-3.540666339687167e-02
	-3.540667401887067e-06
	-5.007259854593742e-06
	-7.081334796692801e-06
86		6.183280795281415e-06
	4.958596964073923e-01
	7.012515076966375e-01
	0.000000000000000e+00
	-3.506257541993787e-01
	-3.506257541993787e-02
	2.424495326714363e-19
	4.019117567981839e-18
	-3.506257541993787e-02
	-3.506257541993787e-02
	-3.506258593871047e-06
	-4.958598451681057e-06
	-7.012517180729579e-06
87		6.280937045281416e-06
	4.910408475414749e-01
	6.944366262761544e-01
	0.000000000000000e+00
	-3.472183134848713e-01
	-3.472183134848713e-02
	-1.260337876219483e-19
	2.336472969781064e-19
	-3.472183134848713e-02
	-3.472183134848713e-02
	-3.472184176503652e-06
	-4.910409948558313e-06
	-6.944368346062938e-06
88		6.378593295281416e-06
	4.862688290670420e-01
	6.876879730289733e-01
	0.000000000000000e+00
	-3.438439868587727e-01
	-3.438439868587728e-02
	1.957565105817980e-18
	1.124960256398136e-18
	-3.438439868587728e-02
	-3.438439868587728e-02
	-3.438440900119685e-06
	-4.862689749504925e-06
	-6.876881793362492e-06
89		6.476249545281416e-06
	4.815431858812492e-01
	6.810049043453283e-01
	0.000000000000000e+00
	-3.405024525127394e-01
	-3.405024525127393e-02
	-2.669311836708620e-21
	2.469171351598352e-18
	-3.405024525127394e-02
	-3.405024525127393e-02
	-3.405025546634749e-06
	-4.815433303462292e-06
	-6.810051086459449e-06
90		6.573905795281416e-06
	4.768634672981129e-01
	6.743867828563760e-01
	0.000000000000000e+00
	-3.371933917658164e-01
	-3.371933917658163e-02
	-8.266900944497837e-19
	2.187826545753754e-18
	-3.371933917658164e-02
	-3.371933917658164e-02
	-3.371934929238337e-06
	-4.768636103599784e-06
	-6.743869851732806e-06
91		6.671562045281417e-06
	4.722292270177436e-01
	6.678329774010850e-01
	0.000000000000000e+00
	-3.339164890340443e-01
	-3.339164890340442e-02
	-1.159553363205410e-18
	2.123131922865369e-18
	-3.339164890340442e-02
	-3.339164890340442e-02
	-3.339165892089908e-06
	-4.722293686884910e-06
	-6.678331777501485e-06
92		6.769218295281417e-06
	4.676400230710231e-01
	6.613428629384975e-01
	0.000000000000000e+00
	-3.306714318003622e-01
	-3.306714318003622e-02
	-8.091418713447775e-19
	2.912067012616395e-18
	-3.306714318003622e-02
	-3.306714318003623e-02
	-3.306715310017915e-06
	-4.676401633657689e-06
	-6.613430613422402e-06
93		6.866874545281417e-06
	4.630954177903444e-01
	6.549158205155283e-01
	0.000000000000000e+00
	-3.274579105848035e-01
	-3.274579105848035e-02
	1.107535283204400e-18
	4.364388959516067e-19
	-3.274579105848035e-02
	-3.274579105848036e-02
	-3.274580088221765e-06
	-4.630955567209152e-06
	-6.549160169894373e-06
94		6.964530795281417e-06
	4.585949777551984e-01
	6.485512371805050e-01
	0.000000000000000e+00
	-3.242756189149806e-01
	-3.242756189149806e-02
	2.422831039321907e-18
	1.937786183396072e-18