Title: C:\Users\georg\AppData\Local\LTspice\examples\Educational\Transformer2.net
Date: Thu Jul  9 01:16:03 2026
Plotname: Transient Analysis
Flags: real forward
No. Variables: 13
No. Points:         1072
Offset:    0.0000000000000000e+00
Command: Linear Technology Corporation LTspice
Variables:
	0	time	time
	1	V(a)	voltage
	2	V(b)	voltage
	3	V(in)	voltage
	4	V(n001)	voltage
	5	I(L1)	device_current
	6	I(L2)	device_current
	7	I(L3)	device_current
	8	I(R1)	device_current
	9	I(V1)	device_current
	10	L1:flux	voltage
	11	L2:flux	voltage
	12	L3:flux	voltage
Values:
0		0.000000000000000e+00
	0.000000000000000e+00
	0.000000000000000e+00
	0.000000000000000e+00
	0.000000000000000e+00
	0.000000000000000e+00
	0.000000000000000e+00
	0.000000000000000e+00
	0.000000000000000e+00
	0.000000000000000e+00
	0.000000000000000e+00
	0.000000000000000e+00
	0.000000000000000e+00
1		9.765624723809263e-13
	-1.953124160131825e-04
	-1.953124160136708e-04
	9.765624723809263e-05
	9.765620840449139e-05
	-3.883360123806371e-12
	-4.686707203807071e-22
	-3.553574777773126e-22
	-3.883360123811513e-12
	-3.883360123472699e-12
	-9.536738832283711e-17
	-1.907347758690023e-16
	-1.907347758690023e-16
2		1.386162687254813e-12
	-2.772324229743869e-04
	-2.772324229750800e-04
	1.386162687254813e-04
	1.386162119261560e-04
	-5.679932528615572e-12
	-6.215363632992775e-22
	-7.529372145827546e-22
	-5.679932528002488e-12
	-5.679932527324861e-12
	-1.521446185127949e-16
	-3.042892358896033e-16
	-3.042892358896034e-16
3		2.205363117002586e-12
	-4.410724301859080e-04
	-4.410724301870103e-04
	2.205363117002586e-04
	2.205362156140411e-04
	-9.608621749494417e-12
	-3.670842169886723e-22
	-1.711535440135773e-21
	-9.608621746024816e-12
	-9.608621746024816e-12
	-2.992535300057376e-16
	-5.985070580897512e-16
	-5.985070580897512e-16
4		3.843763976498131e-12
	-7.687524043436217e-04
	-7.687524043455440e-04
	3.843763976498131e-04
	3.843762028571483e-04
	-1.947926648585847e-11
	-5.117929624166105e-22
	-4.609367836017280e-21
	-1.947926647999192e-11
	-1.947926648676818e-11
	-7.947980431771006e-16
	-1.589596082458348e-15
	-1.589596082458348e-15
5		7.120565695489223e-12
	-1.424112191597783e-03
	-1.424112191601343e-03
	7.120565695489223e-04
	7.120560968127271e-04
	-4.727361953182957e-11
	1.686401953042198e-21
	2.612981564007969e-21
	-4.727361952415466e-11
	-4.727361953499667e-11
	-2.591193665334902e-15
	-5.182387321215082e-15
	-5.182387321215081e-15
6		1.367416913347141e-11
	-2.734831121861281e-03
	-2.734831121868119e-03
	1.367416913347141e-03
	1.367415562601475e-03
	-1.350745665398782e-10
	5.985345626495162e-21
	-1.218604901793821e-20
	-1.350745665491815e-10
	-1.350745665491815e-10
	-9.405209973496617e-15
	-1.881041991997832e-14
	-1.881041991997832e-14
7		2.678137600943577e-11
	-5.356266405411124e-03
	-5.356266405424515e-03
	2.678137600943578e-03
	2.678133205690388e-03
	-4.395253189840120e-10
	9.886493377389331e-21
	3.865961070911554e-21
	-4.395253189615894e-10
	-4.395253189724314e-10
	-3.591813228989876e-14
	-7.183626449189247e-14
	-7.183626449189247e-14
8		5.299578976136450e-11
	-1.059912666461903e-02
	-1.059912666464552e-02
	5.299578976136450e-03
	5.299563337922322e-03
	-1.563821412894570e-09
	5.523254586665625e-20
	2.879279679860416e-20
	-1.563821412815802e-09
	-1.563821412750750e-09
	-1.404834512806964e-13
	-2.809669022486286e-13
	-2.809669022486286e-13
9		1.054246172652220e-10
	-2.108480595160287e-02
	-2.108480595165558e-02
	1.054246172652220e-02
	1.054240298667019e-02
	-5.873985200799159e-09
	2.968515342731268e-20
	-4.610355767549655e-21
	-5.873985200847976e-09
	-5.873985200804607e-09
	-5.557713111576863e-13
	-1.111542621140576e-12
	-1.111542621140576e-12
10		2.102822722729369e-10
	-4.205599960092356e-02
	-4.205599960102870e-02
	2.102822722729369e-02
	2.102799982184234e-02
	-2.274054513577982e-08
	-9.445280731649801e-20
	-8.188538764649450e-20
	-2.274054513549950e-08
	-2.274054513575971e-08
	-2.210970514232487e-12
	-4.421941023916866e-12
	-4.421941023916865e-12
11		4.199975822883668e-10
	-8.399772720962354e-02
	-8.399772720983353e-02
	4.199975822883668e-02
	4.199886364721561e-02
	-8.945816210708272e-08
	-2.531942986357705e-19
	-5.167671290196672e-19
	-8.945816210650938e-08
	-8.945816210720325e-08
	-8.819819620089318e-12
	-1.763963922228700e-11
	-1.763963922228700e-11
12		8.394282023192266e-10
	-1.678785437364301e-01
	-1.678785437368497e-01
	8.394282023192265e-02
	8.393927195266412e-02
	-3.548279258540783e-07
	-5.386659602551843e-19
	-9.460643543576442e-19
	-3.548279258525078e-07
	-3.548279258556303e-07
	-3.523097477018334e-11
	-7.046194946940110e-11
	-7.046194946940110e-11
13		1.678289442380946e-09
	-3.356296225810197e-01
	-3.356296225818588e-01
	1.678289442380946e-01
	1.678148114590441e-01
	-1.413277905045980e-06
	-1.277664208125172e-19
	3.085534645284584e-19
	-1.413277905043531e-06
	-1.413277905041449e-06
	-1.408243460708569e-10
	-2.816486918590583e-10
	-2.816486918590583e-10
14		3.356011922504385e-09
	-6.710895678604919e-01
	-6.710895678621697e-01
	3.356011922504385e-01
	3.355447842669295e-01
	-5.640798350904097e-06
	2.580323746410166e-19
	1.939396083663253e-18
	-5.640798350903253e-06
	-5.640798350900478e-06
	-5.630732007385129e-10
	-1.126146400348866e-09
	-1.126146400348866e-09
15		6.711456882751262e-09
	-1.341840644185012e+00
	-1.341840644188367e+00
	6.711456882751262e-01
	6.709203227654031e-01
	-2.253655097231752e-05
	-1.710121470198255e-18
	-8.732669803814196e-20
	-2.253655097230745e-05
	-2.253655097232687e-05
	-2.251642336266501e-09
	-4.503284668025692e-09
	-4.503284668025693e-09
16		1.000000000000000e-08
	-1.998999744944302e+00
	-1.998999744949298e+00
	1.000000000000000e+00
	9.994998734744488e-01
	-5.001265255512345e-05
	-8.750867777290363e-19
	3.348780325736216e-18
	-5.001265255512033e-05
	-5.001265255512310e-05
	-4.998266755895428e-09
	-9.996533501788325e-09
	-9.996533501788325e-09
17		1.409126464319627e-08
	-1.998182068759463e+00
	-1.998182068764459e+00
	1.000000000000000e+00
	9.990910353810200e-01
	-9.089646189801373e-05
	-4.411691696435218e-18
	-1.127210849408770e-17
	-9.089646189800460e-05
	-9.089646189804068e-05
	-9.086648916702366e-09
	-1.817329781522544e-08
	-1.817329781522544e-08
18		1.863373778693403e-08
	-1.997274606298331e+00
	-1.997274606303323e+00
	1.000000000000000e+00
	9.986373041505986e-01
	-1.362695849401477e-04
	2.907051816562486e-18
	1.274425589231874e-18
	-1.362695849401407e-04
	-1.362695849401463e-04
	-1.362396258210548e-08
	-2.724792513695704e-08
	-2.724792513695704e-08
19		2.483944287441103e-08
	-1.996035541416276e+00
	-1.996035541421267e+00
	1.000000000000000e+00
	9.980177717083486e-01
	-1.982228291651499e-04
	2.816636839707377e-18
	2.462983213435843e-18
	-1.982228291651400e-04
	-1.982228291651372e-04
	-1.981928886320280e-08
	-3.963857768676104e-08
	-3.963857768676104e-08
20		3.725085304936502e-08
	-1.993559716998606e+00
	-1.993559717003588e+00
	1.000000000000000e+00
	9.967798594988753e-01
	-3.220140501124752e-04
	1.632342504380506e-18
	7.559553987285367e-19
	-3.220140501124735e-04
	-3.220140501124791e-04
	-3.219841467167254e-08
	-6.439682927894226e-08
	-6.439682927894226e-08
21		6.207367339927300e-08
	-1.988617275278502e+00
	-1.988617275283476e+00
	1.000000000000000e+00
	9.943086386357436e-01
	-5.691361364256413e-04
	-6.902315977220133e-18
	-4.135132130434239e-18
	-5.691361364256409e-04
	-5.691361364256464e-04
	-5.691063071665440e-08
	-1.138212613194816e-07
	-1.138212613194816e-07
22		1.117193140990890e-07
	-1.978769106290910e+00
	-1.978769106295854e+00
	1.000000000000000e+00
	9.893845541376142e-01
	-1.061544586238589e-03
	-6.373563104522149e-18
	-5.421361587007245e-18
	-1.061544586238583e-03
	-1.061544586238583e-03
	-1.061514904702028e-07
	-2.123029807280967e-07
	-2.123029807280968e-07
23		2.093755640990889e-07
	-1.959539091563786e+00
	-1.959539091568687e+00
	1.000000000000000e+00
	9.797695467638085e-01
	-2.023045323619156e-03
	1.203042383910385e-18
	-5.610321898958246e-18
	-2.023045323619155e-03
	-2.023045323619160e-03
	-2.023015930532801e-07
	-4.046031857019512e-07
	-4.046031857019512e-07
24		3.070318140990890e-07
	-1.940495957388057e+00
	-1.940495957392906e+00
	1.000000000000000e+00
	9.702479796670033e-01
	-2.975202033299682e-03
	-3.044810475777067e-18
	-4.512304983062493e-18
	-2.975202033299673e-03
	-2.975202033299679e-03
	-2.975172925860346e-07
	-5.950345845770289e-07
	-5.950345845770288e-07
25		4.046880640990890e-07
	-1.921637887631552e+00
	-1.921637887636361e+00
	1.000000000000000e+00
	9.608189447786937e-01
	-3.918105522130642e-03
	1.067049755303605e-18
	-6.772440349243183e-18
	-3.918105522130633e-03
	-3.918105522130622e-03
	-3.918076697562347e-07
	-7.836153387288484e-07
	-7.836153387288485e-07
26		5.023443140990889e-07
	-1.902963083801960e+00
	-1.902963083806710e+00
	1.000000000000000e+00
	9.514815428551396e-01
	-4.851845714486041e-03
	-6.253435800064136e-19
	-5.624229286597100e-18
	-4.851845714486037e-03
	-4.851845714486033e-03
	-4.851817170039806e-07
	-9.703634330375920e-07
	-9.703634330375920e-07
27		6.000005640990890e-07
	-1.884469764894642e+00
	-1.884469764899363e+00
	1.000000000000000e+00
	9.422348833916047e-01
	-5.776511660839538e-03
	-3.554385993153622e-18
	-1.026497722081560e-17
	-5.776511660839534e-03
	-5.776511660839562e-03
	-5.776483393793101e-07
	-1.155296677603318e-06
	-1.155296677603318e-06
28		6.976568140990890e-07
	-1.866156167203435e+00
	-1.866156167208090e+00
	1.000000000000000e+00
	9.330780845374282e-01
	-6.692191546257183e-03
	-4.763548686416287e-18
	-3.748950453754670e-18
	-6.692191546257176e-03
	-6.692191546257178e-03
	-6.692163553914701e-07
	-1.338432709444502e-06
	-1.338432709444502e-06
29		7.953130640990891e-07
	-1.848020544171817e+00
	-1.848020544176448e+00
	1.000000000000000e+00
	9.240102730119252e-01
	-7.598972698807484e-03
	-2.536855405220504e-18
	-5.065987425061600e-18
	-7.598972698807483e-03
	-7.598972698807480e-03
	-7.598944978499345e-07
	-1.519788994180075e-06
	-1.519788994180075e-06
30		8.929693140990891e-07
	-1.830061166206965e+00
	-1.830061166211526e+00
	1.000000000000000e+00
	9.150305840211004e-01
	-8.496941597889969e-03
	-2.871360627492048e-18
	-6.225821202494666e-18
	-8.496941597889962e-03
	-8.496941597889968e-03
	-8.496914146972503e-07
	-1.699382827695113e-06
	-1.699382827695113e-06
31		9.906255640990892e-07
	-1.812276320534156e+00
	-1.812276320538694e+00
	1.000000000000000e+00
	9.061381611751735e-01
	-9.386183882482651e-03
	-5.236230294111752e-18
	-6.589415058187250e-18
	-9.386183882482647e-03
	-9.386183882482663e-03
	-9.386156698337875e-07
	-1.877231337790338e-06
	-1.877231337790338e-06
32		1.088281814099089e-06
	-1.794664311014074e+00
	-1.794664311018539e+00
	1.000000000000000e+00
	8.973321564069061e-01
	-1.026678435930940e-02
	-2.115830399598364e-18
	-5.472411038510955e-18
	-1.026678435930939e-02
	-1.026678435930939e-02
	-1.026675743934475e-06
	-2.053351485815594e-06
	-2.053351485815594e-06
33		1.185938064099089e-06
	-1.777223458000379e+00
	-1.777223458004844e+00
	1.000000000000000e+00
	8.886117298907213e-01
	-1.113882701092787e-02
	-6.409240231522174e-18
	-1.790078402568856e-18
	-1.113882701092787e-02
	-1.113882701092786e-02
	-1.113880035257602e-06
	-2.227760068287439e-06
	-2.227760068287439e-06
34		1.283594314099089e-06
	-1.759952098160274e+00
	-1.759952098164674e+00
	1.000000000000000e+00
	8.799760499626103e-01
	-1.200239500373898e-02
	-2.409744214850705e-18
	-7.485316181669958e-18
	-1.200239500373898e-02
	-1.200239500373898e-02
	-1.200236860445753e-06
	-2.400473718491028e-06
	-2.400473718491028e-06
35		1.381250564099089e-06
	-1.742848584335047e+00
	-1.742848584339390e+00
	1.000000000000000e+00
	8.714242930408159e-01
	-1.285757069591841e-02
	-7.905198023685550e-18
	-5.547825922138027e-18
	-1.285757069591841e-02
	-1.285757069591840e-02
	-1.285754455318968e-06
	-2.571508908066422e-06
	-2.571508908066422e-06
36		1.478906814099089e-06
	-1.725911285363755e+00
	-1.725911285368092e+00
	1.000000000000000e+00
	8.629556435472889e-01
	-1.370443564527112e-02
	2.589206839008373e-18
	-5.083861970918259e-18
	-1.370443564527111e-02
	-1.370443564527110e-02
	-1.370440975660185e-06
	-2.740881948579483e-06
	-2.740881948579483e-06
37		1.576563064099089e-06
	-1.709138585947018e+00
	-1.709138585951277e+00
	1.000000000000000e+00
	8.545692938299069e-01
	-1.454307061700932e-02
	-5.911084769682527e-18
	-6.280923838999886e-18
	-1.454307061700931e-02
	-1.454307061700931e-02
	-1.454304497993056e-06
	-2.908608993077498e-06
	-2.908608993077498e-06
38		1.674219314099089e-06
	-1.692528886473539e+00
	-1.692528886477806e+00
	1.000000000000000e+00
	8.462644440854469e-01
	-1.537355559145532e-02
	-3.526369385806451e-18
	-6.914050361389811e-18
	-1.537355559145531e-02
	-1.537355559145531e-02
	-1.537353020352205e-06
	-3.074706037629699e-06
	-3.074706037629699e-06
39		1.771875564099090e-06
	-1.676080602886949e+00
	-1.676080602891111e+00
	1.000000000000000e+00
	8.380403022833105e-01
	-1.619596977166896e-02
	7.367846608520077e-19
	-2.011349216426791e-18
	-1.619596977166895e-02
	-1.619596977166896e-02
	-1.619594463045992e-06
	-3.239188922852790e-06
	-3.239188922852790e-06
40		1.869531814099090e-06
	-1.659792166515444e+00
	-1.659792166519622e+00
	1.000000000000000e+00
	8.298960840899876e-01
	-1.701039159100124e-02
	1.044295671013496e-18
	-4.246734511499281e-18
	-1.701039159100124e-02
	-1.701039159100123e-02
	-1.701036669411876e-06
	-3.402073335421674e-06
	-3.402073335421674e-06
41		1.967188064099090e-06
	-1.643662023941351e+00
	-1.643662023945417e+00
	1.000000000000000e+00
	8.218310127942541e-01
	-1.781689872057460e-02
	-4.938483323900839e-18
	-8.917098820369632e-18
	-1.781689872057459e-02
	-1.781689872057460e-02
	-1.781687406564427e-06
	-3.563374809565475e-06
	-3.563374809565475e-06
42		2.064844314099089e-06
	-1.627688636833857e+00
	-1.627688636837954e+00
	1.000000000000000e+00
	8.138443192330972e-01
	-1.861556807669029e-02
	-1.751138875232922e-18
	-7.404411300317371e-18
	-1.861556807669028e-02
	-1.861556807669028e-02
	-1.861554366136076e-06
	-3.723108728549038e-06
	-3.723108728549038e-06
43		2.162500564099089e-06
	-1.611870481821429e+00
	-1.611870481825430e+00
	1.000000000000000e+00
	8.059352417183622e-01
	-1.940647582816379e-02
	-4.392038712261571e-18
	-7.670813915576812e-18
	-1.940647582816378e-02
	-1.940647582816379e-02
	-1.940645165010659e-06
	-3.881290326140023e-06
	-3.881290326140022e-06
44		2.260156814099089e-06
	-1.596206050327396e+00
	-1.596206050331457e+00
	1.000000000000000e+00
	7.981030259641085e-01
	-2.018969740358915e-02
	-2.395429854350475e-18
	-6.094726310294812e-18
	-2.018969740358915e-02
	-2.018969740358914e-02
	-2.018967346049842e-06
	-4.037934688061745e-06
	-4.037934688061745e-06
45		2.357813064099089e-06
	-1.580693848445361e+00
	-1.580693848449242e+00
	1.000000000000000e+00
	7.903469250146753e-01
	-2.096530749853247e-02
	-8.092752955775823e-18
	-7.972978030258757e-18
	-2.096530749853247e-02
	-2.096530749853248e-02
	-2.096528378812478e-06
	-4.193056753431895e-06
	-4.193056753431895e-06
46		2.455469314099089e-06
	-1.565332396777013e+00
	-1.565332396780997e+00
	1.000000000000000e+00
	7.826661991734432e-01
	-2.173338008265569e-02
	-6.954942862151982e-19
	-6.302660491136554e-18
	-2.173338008265568e-02
	-2.173338008265568e-02
	-2.173335660266977e-06
	-4.346671316187277e-06
	-4.346671316187277e-06
47		2.553125564099089e-06
	-1.550120230311235e+00
	-1.550120230315039e+00
	1.000000000000000e+00
	7.750601159322907e-01
	-2.249398840677093e-02
	4.617399107067968e-18
	-9.229438083766592e-18
	-2.249398840677093e-02
	-2.249398840677093e-02
	-2.249396515496749e-06
	-4.498793026494700e-06
	-4.498793026494700e-06
48		2.650781814099088e-06
	-1.535055898263977e+00
	-1.535055898267886e+00
	1.000000000000000e+00
	7.675279499017355e-01
	-2.324720500982646e-02
	-8.204806977455319e-18
	-4.958329868337824e-18
	-2.324720500982646e-02
	-2.324720500982645e-02
	-2.324718198398801e-06
	-4.649436392148162e-06
	-4.649436392148163e-06
49		2.748438064099088e-06
	-1.520137963960221e+00
	-1.520137963963907e+00
	1.000000000000000e+00
	7.600689827417522e-01
	-2.399310172582478e-02
	-2.796308876153887e-19
	-1.002508988009155e-17
	-2.399310172582479e-02
	-2.399310172582478e-02
	-2.399307892375535e-06
	-4.798615779952450e-06
	-4.798615779952449e-06
50		2.846094314099088e-06
	-1.505365004676763e+00
	-1.505365004680654e+00
	1.000000000000000e+00
	7.526825030932672e-01
	-2.473174969067328e-02
	-2.296843987404568e-18
	-6.459487317831708e-18
	-2.473174969067328e-02
	-2.473174969067328e-02
	-2.473172711019823e-06
	-4.946345417093297e-06
	-4.946345417093297e-06
51		2.943750564099088e-06
	-1.490735611526839e+00
	-1.490735611530424e+00
	1.000000000000000e+00
	7.453678065103149e-01
	-2.546321934896851e-02
	-3.209305266750587e-18
	-3.939263206007195e-18
	-2.546321934896852e-02
	-2.546321934896852e-02
	-2.546319698793436e-06
	-5.092639392494228e-06
	-5.092639392494228e-06
52		3.041406814099088e-06
	-1.476248389305128e+00
	-1.476248389308960e+00
	1.000000000000000e+00
	7.381241953928555e-01
	-2.618758046071446e-02
	-5.355739281061882e-18
	-4.717409379028692e-18
	-2.618758046071445e-02
	-2.618758046071445e-02
	-2.618755831698865e-06
	-5.237511658160213e-06
	-5.237511658160214e-06
53		3.139063064099088e-06
	-1.461901956375650e+00
	-1.461901956379134e+00
	1.000000000000000e+00
	7.309509789202445e-01
	-2.690490210797555e-02
	-3.363814746959674e-18
	-3.331373136925650e-18
	-2.690490210797555e-02
	-2.690490210797554e-02
	-2.690488017944622e-06
	-5.380976030508265e-06
	-5.380976030508265e-06
54		3.236719314099087e-06
	-1.447694944518695e+00
	-1.447694944522485e+00
	1.000000000000000e+00
	7.238474729853509e-01
	-2.761525270146491e-02
	-4.584485590494483e-18
	-1.096973841143323e-19
	-2.761525270146491e-02
	-2.761525270146491e-02
	-2.761523098604076e-06
	-5.523046191685102e-06
	-5.523046191685102e-06
55		3.334375564099087e-06
	-1.433625998822190e+00
	-1.433625998825604e+00
	1.000000000000000e+00
	7.168130001293124e-01
	-2.831869998706877e-02
	-1.064839115116557e-18
	-8.879808691175129e-19
	-2.831869998706876e-02
	-2.831869998706876e-02
	-2.831867848267880e-06
	-5.663735690872020e-06
	-5.663735690872020e-06
56		3.432031814099087e-06
	-1.419693777529915e+00
	-1.419693777533635e+00
	1.000000000000000e+00
	7.098468894769275e-01
	-2.901531105230725e-02
	-3.862751480887878e-18
	-2.764839616929919e-18
	-2.901531105230725e-02
	-2.901531105230724e-02
	-2.901528975690061e-06
	-5.803057945577060e-06
	-5.803057945577060e-06
57		3.529688064099087e-06
	-1.405896951936684e+00
	-1.405896951939971e+00
	1.000000000000000e+00
	7.029484766726739e-01
	-2.970515233273262e-02
	-1.151652961174916e-18
	-7.650382554446752e-19
	-2.970515233273261e-02
	-2.970515233273262e-02
	-2.970513124427835e-06
	-5.941026242914639e-06
	-5.941026242914639e-06
58		3.627344314099087e-06
	-1.392234206238331e+00
	-1.392234206242025e+00
	1.000000000000000e+00
	6.961171038173490e-01
	-3.038828961826509e-02
	5.207825739057293e-19
	-1.356715998110487e-18
	-3.038828961826510e-02
	-3.038828961826508e-02
	-3.038826873475200e-06
	-6.077653740872744e-06
	-6.077653740872744e-06
59		3.725000564099087e-06
	-1.378704237429215e+00
	-1.378704237432449e+00
	1.000000000000000e+00
	6.893521194053275e-01
	-3.106478805946726e-02
	-2.693894403742777e-18
	-1.362744076824467e-18
	-3.106478805946725e-02
	-3.106478805946726e-02
	-3.106476737890371e-06
	-6.212953469567784e-06
	-6.212953469567784e-06
60		3.822656814099087e-06
	-1.365305755155458e+00
	-1.365305755159099e+00
	1.000000000000000e+00
	6.826528782624254e-01
	-3.173471217375747e-02
	-4.639658950942076e-18
	-8.427321043773921e-18
	-3.173471217375747e-02
	-3.173471217375747e-02
	-3.173469169417117e-06
	-6.346938332487292e-06
	-6.346938332487293e-06
61		3.920313064099087e-06
	-1.352037481614050e+00
	-1.352037481617202e+00
	1.000000000000000e+00
	6.760187414843712e-01
	-3.239812585156288e-02
	-2.780670613083265e-18
	-6.051923435907949e-18
	-3.239812585156288e-02
	-3.239812585156288e-02
	-3.239810557100067e-06
	-6.479621107720510e-06
	-6.479621107720509e-06
62		4.017969314099087e-06
	-1.338898151408779e+00
	-1.338898151412410e+00
	1.000000000000000e+00
	6.694490763758750e-01
	-3.305509236241250e-02
	-4.781230912780527e-18
	-1.825193873932957e-18
	-3.305509236241250e-02
	-3.305509236241250e-02
	-3.305507227894025e-06
	-6.611014449177032e-06
	-6.611014449177031e-06
63		4.115625564099088e-06
	-1.325886511452050e+00
	-1.325886511455109e+00
	1.000000000000000e+00
	6.629432563902863e-01
	-3.370567436097138e-02
	-5.042191093199675e-19
	-6.342035942655303e-18
	-3.370567436097138e-02
	-3.370567436097138e-02
	-3.370565447267372e-06
	-6.741130887793609e-06
	-6.741130887793609e-06
64		4.213281814099088e-06
	-1.313001320822746e+00
	-1.313001320826256e+00
	1.000000000000000e+00
	6.565006610698416e-01
	-3.434993389301583e-02
	-3.288410616680565e-18
	-5.112629658261628e-18
	-3.434993389301584e-02
	-3.434993389301584e-02
	-3.434991419799605e-06
	-6.869982832729223e-06
	-6.869982832729223e-06
65		4.310938064099088e-06
	-1.300241350670164e+00
	-1.300241350673158e+00
	1.000000000000000e+00
	6.501206759864919e-01
	-3.498793240135082e-02
	-1.137288556247626e-18
	-6.874138069653515e-18
	-3.498793240135081e-02
	-3.498793240135081e-02
	-3.498791289773058e-06
	-6.997582572548530e-06
	-6.997582572548531e-06
66		4.408594314099088e-06
	-1.287605384075144e+00
	-1.287605384078590e+00
	1.000000000000000e+00
	6.438026926833038e-01
	-3.561973073166962e-02
	-4.943073762710202e-18
	-1.630131450603152e-18
	-3.561973073166962e-02
	-3.561973073166962e-02
	-3.561971141758887e-06
	-7.123942276393829e-06
	-7.123942276393830e-06
67		4.506250564099089e-06
	-1.275092215955288e+00
	-1.275092215958219e+00
	1.000000000000000e+00
	6.375461086164327e-01
	-3.624538913835674e-02
	-6.617450690688509e-18
	-2.027521010992509e-18
	-3.624538913835673e-02
	-3.624538913835673e-02
	-3.624537001197352e-06
	-7.249073995145626e-06
	-7.249073995145626e-06
68		4.603906814099089e-06
	-1.262700652928812e+00
	-1.262700652932224e+00
	1.000000000000000e+00
	6.313503270976566e-01
	-3.686496729023434e-02
	4.331576772567620e-19
	-1.402238228761118e-18
	-3.686496729023434e-02
	-3.686496729023435e-02
	-3.686494834972455e-06
	-7.372989662571916e-06
	-7.372989662571916e-06
69		4.701563064099089e-06
	-1.250429513222071e+00
	-1.250429513224970e+00
	1.000000000000000e+00
	6.252147572374726e-01
	-3.747852427625275e-02
	-6.217486117052275e-18
	-1.283997309690031e-18
	-3.747852427625275e-02
	-3.747852427625276e-02
	-3.747850551981007e-06
	-7.495701096466309e-06
	-7.495701096466310e-06
70		4.799219314099089e-06
	-1.238277626535458e+00
	-1.238277626538752e+00
	1.000000000000000e+00
	6.191388138887406e-01
	-3.808611861112594e-02
	2.117268866683593e-18
	-4.141768600488752e-18
	-3.808611861112594e-02
	-3.808611861112594e-02
	-3.808610003696154e-06
	-7.617219999775086e-06
	-7.617219999775086e-06
71		4.896875564099090e-06
	-1.226243833953111e+00
	-1.226243833955978e+00
	1.000000000000000e+00
	6.131219175908819e-01
	-3.868780824091182e-02
	-2.089991758804045e-18
	-6.200324600883638e-18
	-3.868780824091182e-02
	-3.868780824091182e-02
	-3.868778984725434e-06
	-7.737557961713306e-06
	-7.737557961713306e-06
72		4.994531814099090e-06
	-1.214326987811209e+00
	-1.214326987814444e+00
	1.000000000000000e+00
	6.071634945146122e-01
	-3.928365054853879e-02
	-1.637685263956986e-18
	-4.067338061790618e-18
	-3.928365054853879e-02
	-3.928365054853880e-02
	-3.928363233363399e-06
	-7.856726458870067e-06
	-7.856726458870069e-06
73		5.009999999999999e-06
	-1.212450096421780e+00
	-1.212450096424356e+00
	1.000000000000000e+00
	6.062250488182306e-01
	-3.937749511817695e-02
	-3.727275426573636e-18
	-4.836161082128029e-18
	-3.937749511817695e-02
	-3.937749511817695e-02
	-3.937747693142552e-06
	-7.875495378409607e-06
	-7.875495378409605e-06
74		5.019999999999999e-06
	7.877616457358608e-01
	7.877616457369205e-01
	0.000000000000000e+00
	-3.938808232627863e-01
	-3.938808232627863e-02
	3.977233277665217e-19
	5.799563038727209e-18
	-3.938808232627863e-02
	-3.938808232627863e-02
	-3.938809414270329e-06
	-7.877618820663043e-06
	-7.877618820663043e-06
75		5.117656250000000e-06
	7.801060440786213e-01
	7.801060440815946e-01
	0.000000000000000e+00
	-3.900530224302031e-01
	-3.900530224302031e-02
	7.777875902259550e-19
	4.543777137418605e-18
	-3.900530224302032e-02
	-3.900530224302032e-02
	-3.900531394461095e-06
	-7.801062781121131e-06
	-7.801062781121131e-06
76		5.206718295281414e-06
	7.731890641897662e-01
	7.731890641906759e-01
	0.000000000000000e+00
	-3.865945324825830e-01
	-3.865945324825829e-02
	5.119871624524530e-19
	3.539430154088357e-18
	-3.865945324825830e-02
	-3.865945324825829e-02
	-3.865946484609424e-06
	-7.731892961486959e-06
	-7.731892961486959e-06
77		5.304374545281414e-06
	7.656750813588278e-01
	7.656750813617653e-01
	0.000000000000000e+00
	-3.828375410630708e-01
	-3.828375410630708e-02
	2.067219476540460e-19
	2.696576536878981e-18
	-3.828375410630708e-02
	-3.828375410630708e-02
	-3.828376559143329e-06
	-7.656753110629910e-06
	-7.656753110629908e-06
78		5.402030795281414e-06
	7.582341206899929e-01
	7.582341206908083e-01
	0.000000000000000e+00
	-3.791170607251709e-01
	-3.791170607251709e-02
	2.176214584314735e-18
	1.888889262641378e-18
	-3.791170607251709e-02
	-3.791170607251709e-02
	-3.791171744602888e-06
	-7.582343481623436e-06
	-7.582343481623436e-06
79		5.499687045281414e-06
	7.508654725433818e-01
	7.508654725463958e-01
	0.000000000000000e+00
	-3.754327366479821e-01
	-3.754327366479820e-02
	1.869757815843945e-18
	3.394684300239540e-18
	-3.754327366479821e-02
	-3.754327366479821e-02
	-3.754328492778028e-06
	-7.508656978047402e-06
	-7.508656978047402e-06
80		5.597343295281415e-06
	7.435684341720474e-01
	7.435684341727696e-01
	0.000000000000000e+00
	-3.717842174588133e-01
	-3.717842174588133e-02
	1.473963473265897e-18
	2.395277653117765e-18
	-3.717842174588133e-02
	-3.717842174588133e-02
	-3.717843289940783e-06
	-7.435686572445882e-06
	-7.435686572445882e-06
81		5.694999545281415e-06
	7.363423096613075e-01
	7.363423096642568e-01
	0.000000000000000e+00
	-3.681711551996732e-01
	-3.681711551996732e-02
	2.908694804054169e-18
	4.258303459546448e-18
	-3.681711551996732e-02
	-3.681711551996730e-02
	-3.681712656510195e-06
	-7.363425305656966e-06
	-7.363425305656967e-06
82		5.792655795281415e-06
	7.291864098569513e-01
	7.291864098576657e-01
	0.000000000000000e+00
	-3.645932052940848e-01
	-3.645932052940848e-02
	7.081627640916010e-19
	3.452023633121103e-18
	-3.645932052940849e-02
	-3.645932052940849e-02
	-3.645933146720462e-06
	-7.291866286149059e-06
	-7.291866286149059e-06
83		5.890312045281415e-06
	7.221000523047583e-01
	7.221000523076720e-01
	0.000000000000000e+00
	-3.610500265142244e-01
	-3.610500265142244e-02
	2.686843309406222e-18
	8.310282431723181e-19
	-3.610500265142244e-02
	-3.610500265142244e-02
	-3.610501348292321e-06
	-7.221002689363643e-06
	-7.221002689363643e-06
84		5.987968295281416e-06
	7.150825611796435e-01
	7.150825611803511e-01
	0.000000000000000e+00
	-3.575412809483784e-01
	-3.575412809483785e-02
	2.006764567881715e-18
	3.370064716872971e-18
	-3.575412809483785e-02
	-3.575412809483785e-02
	-3.575413882107624e-06
	-7.150827757064424e-06
	-7.150827757064424e-06
85		6.085624545281416e-06
	7.081332672277615e-01
	7.081332672306119e-01
	0.000000000000000e+00
	-3.540666339687163e-01
	-3.540666339687164e-02
	1.318369145683447e-18
	3.290942823330743e-18
	-3.540666339687164e-02
	-3.540666339687164e-02
	-3.540667401887063e-06
	-7.081334796692793e-06
	-7.081334796692793e-06
86		6.183280795281416e-06
	7.012515076955097e-01
	7.012515076961543e-01
	0.000000000000000e+00
	-3.506257541993782e-01
	-3.506257541993783e-02
	2.175296000244494e-18
	2.083555052867463e-18
	-3.506257541993783e-02
	-3.506257541993783e-02
	-3.506258593871042e-06
	-7.012517180729571e-06
	-7.012517180729571e-06
87		6.280937045281416e-06
	6.944366262737930e-01
	6.944366262766375e-01
	0.000000000000000e+00
	-3.472183134848710e-01
	-3.472183134848709e-02
	1.425332284282986e-18
	4.545750376769850e-20
	-3.472183134848710e-02
	-3.472183134848710e-02
	-3.472184176503649e-06
	-6.944368346062930e-06
	-6.944368346062931e-06
88		6.378593295281417e-06
	6.876879730278512e-01
	6.876879730285471e-01
	0.000000000000000e+00
	-3.438439868587724e-01
	-3.438439868587724e-02
	1.443497377329803e-18
	2.957931902835776e-18
	-3.438439868587724e-02
	-3.438439868587724e-02
	-3.438440900119682e-06
	-6.876881793362484e-06
	-6.876881793362484e-06
89		6.476249545281417e-06
	6.810049043430006e-01
	6.810049043457547e-01
	0.000000000000000e+00
	-3.405024525127391e-01
	-3.405024525127390e-02
	3.056976234636191e-18
	1.220701862807780e-18
	-3.405024525127391e-02
	-3.405024525127390e-02
	-3.405025546634745e-06
	-6.810051086459442e-06
	-6.810051086459442e-06
90		6.573905795281417e-06
	6.743867828552584e-01
	6.743867828558929e-01
	0.000000000000000e+00
	-3.371933917658159e-01
	-3.371933917658158e-02
	-1.566421999824318e-18
	8.178940626110480e-19
	-3.371933917658159e-02
	-3.371933917658159e-02
	-3.371934929238332e-06
	-6.743869851732798e-06
	-6.743869851732798e-06
91		6.671562045281417e-06
	6.678329773988471e-01
	6.678329774015681e-01
	0.000000000000000e+00
	-3.339164890340437e-01
	-3.339164890340437e-02
	-1.294455974559999e-18
	2.454387359305345e-18
	-3.339164890340437e-02
	-3.339164890340438e-02
	-3.339165892089902e-06
	-6.678331777501474e-06
	-6.678331777501474e-06
92		6.769218295281418e-06
	6.613428629374410e-01
	6.613428629380429e-01
	0.000000000000000e+00
	-3.306714318003616e-01
	-3.306714318003616e-02
	2.572643581217764e-18
	1.300019591360030e-18
	-3.306714318003617e-02
	-3.306714318003617e-02
	-3.306715310017909e-06
	-6.613430613422390e-06
	-6.613430613422390e-06
93		6.866874545281418e-06
	6.549158205133225e-01
	6.549158205160115e-01
	0.000000000000000e+00
	-3.274579105848028e-01
	-3.274579105848028e-02
	-3.551402766274449e-19
	8.243140181402252e-19
	-3.274579105848029e-02
	-3.274579105848029e-02
	-3.274580088221758e-06
	-6.549160169894359e-06
	-6.549160169894359e-06
94		6.964530795281418e-06
	6.485512371795090e-01
	6.485512371800788e-01
	0.000000000000000e+00
	-3.242756189149797e-01
	-3.242756189149797e-02
	1.497469671527969e-18
	2.134335463876940e-18