Title: capacitance and current comparison between models d and bulk diode in vdmos
Date: Thu Nov 28 21:01:26  2024
Plotname: AC Analysis
Flags: complex
No. Variables: 13
No. Points: 51      
Variables:
	0	frequency	frequency	grid=3
	1	v(ad)	voltage
	2	v(kd)	voltage
	3	v(d)	voltage
	4	v(g)	voltage
	5	v(s)	voltage
	6	i(vs)	current
	7	i(vg)	current
	8	i(vd)	current
	9	i(vk)	current
	10	i(va)	current
	11	v(m1#gate)	voltage
	12	v(m1#body diode)	voltage
Values:
0		1.000000000000000e+00,-2.930965534768566e-188
	1.000000000000000e+00,0.000000000000000e+00
	0.000000000000000e+00,0.000000000000000e+00
	1.000000000000000e+00,0.000000000000000e+00
	0.000000000000000e+00,0.000000000000000e+00
	0.000000000000000e+00,0.000000000000000e+00
	1.227303607204323e-01,1.230947391885475e-06
	3.557376110964901e-17,1.614818795517456e-09
	-1.227303607204324e-01,-1.232562210680993e-06
	1.227303607204320e-01,1.230947391894080e-06
	-1.227303607204249e-01,-1.230947391894080e-06
	3.557376110964901e-17,1.614818795517456e-09
	4.663753707376425e-04,4.677600089164806e-09
1		1.258925411794167e+00,-2.930965534768566e-188
	1.000000000000000e+00,0.000000000000000e+00
	0.000000000000000e+00,0.000000000000000e+00
	1.000000000000000e+00,0.000000000000000e+00
	0.000000000000000e+00,0.000000000000000e+00
	0.000000000000000e+00,0.000000000000000e+00
	1.227303607204356e-01,1.549670952226378e-06
	5.638061181292061e-17,2.032936417119774e-09
	-1.227303607204357e-01,-1.551703888643498e-06
	1.227303607204354e-01,1.549670952237211e-06
	-1.227303607204249e-01,-1.549670952237211e-06
	5.638061181292061e-17,2.032936417119774e-09
	4.663753707376552e-04,5.888749618460237e-09
2		1.584893192461114e+00,-2.930965534768566e-188
	1.000000000000000e+00,0.000000000000000e+00
	0.000000000000000e+00,0.000000000000000e+00
	1.000000000000000e+00,0.000000000000000e+00
	0.000000000000000e+00,0.000000000000000e+00
	0.000000000000000e+00,0.000000000000000e+00
	1.227303607204409e-01,1.950920141677052e-06
	8.935724784909051e-17,2.559315316073870e-09
	-1.227303607204411e-01,-1.953479456993126e-06
	1.227303607204407e-01,1.950920141690690e-06
	-1.227303607204249e-01,-1.950920141690690e-06
	8.935724784909051e-17,2.559315316073870e-09
	4.663753707376756e-04,7.413496538372799e-09
3		1.995262314968880e+00,-2.930965534768566e-188
	1.000000000000000e+00,0.000000000000000e+00
	0.000000000000000e+00,0.000000000000000e+00
	1.000000000000000e+00,0.000000000000000e+00
	0.000000000000000e+00,0.000000000000000e+00
	0.000000000000000e+00,0.000000000000000e+00
	1.227303607204493e-01,2.456062942738319e-06
	1.416216938130839e-16,3.221987088199414e-09
	-1.227303607204495e-01,-2.459284929826518e-06
	1.227303607204492e-01,2.456062942755487e-06
	-1.227303607204249e-01,-2.456062942755487e-06
	1.416216938130839e-16,3.221987088199414e-09
	4.663753707377077e-04,9.333039182405611e-09
4		2.511886431509581e+00,-2.930965534768566e-188
	1.000000000000000e+00,0.000000000000000e+00
	0.000000000000000e+00,0.000000000000000e+00
	1.000000000000000e+00,0.000000000000000e+00
	0.000000000000000e+00,0.000000000000000e+00
	0.000000000000000e+00,0.000000000000000e+00
	1.227303607204627e-01,3.092000051579231e-06
	2.244552584291687e-16,4.056241421806933e-09
	-1.227303607204629e-01,-3.096056293001039e-06
	1.227303607204626e-01,3.092000051600845e-06
	-1.227303607204817e-01,-3.092000051600844e-06
	2.244552584291687e-16,4.056241421806933e-09
	4.663753707377586e-04,1.174960019600108e-08
5		3.162277660168380e+00,-2.930965534768566e-188
	1.000000000000000e+00,0.000000000000000e+00
	0.000000000000000e+00,0.000000000000000e+00
	1.000000000000000e+00,0.000000000000000e+00
	0.000000000000000e+00,0.000000000000000e+00
	0.000000000000000e+00,0.000000000000000e+00
	1.227303607204838e-01,3.892597438201970e-06
	3.557376110964887e-16,5.106505402284841e-09
	-1.227303607204843e-01,-3.897703943604255e-06
	1.227303607204839e-01,3.892597438229180e-06
	-1.227303607204817e-01,-3.892597438229180e-06
	3.557376110964887e-16,5.106505402284841e-09
	4.663753707378395e-04,1.479187026516749e-08
6		3.981071705534974e+00,-2.930965534768566e-188
	1.000000000000000e+00,0.000000000000000e+00
	0.000000000000000e+00,0.000000000000000e+00
	1.000000000000000e+00,0.000000000000000e+00
	0.000000000000000e+00,0.000000000000000e+00
	0.000000000000000e+00,0.000000000000000e+00
	1.227303607205174e-01,4.900489832837334e-06
	5.638061181292028e-16,6.428709416400568e-09
	-1.227303607205179e-01,-4.906918542253736e-06
	1.227303607205175e-01,4.900489832871590e-06
	-1.227303607205386e-01,-4.900489832871589e-06
	5.638061181292028e-16,6.428709416400568e-09
	4.663753707379675e-04,1.862186136478187e-08
7		5.011872336272725e+00,-2.930965534768566e-188
	1.000000000000000e+00,0.000000000000000e+00
	0.000000000000000e+00,0.000000000000000e+00
	1.000000000000000e+00,0.000000000000000e+00
	0.000000000000000e+00,0.000000000000000e+00
	0.000000000000000e+00,0.000000000000000e+00
	1.227303607205705e-01,6.169351180797870e-06
	8.935724784908953e-16,8.093265649347086e-09
	-1.227303607205714e-01,-6.177444446447217e-06
	1.227303607205709e-01,6.169351180840995e-06
	-1.227303607205954e-01,-6.169351180840995e-06
	8.935724784908953e-16,8.093265649347086e-09
	4.663753707381704e-04,2.344353448703191e-08
8		6.309573444801935e+00,-2.930965534768566e-188
	1.000000000000000e+00,0.000000000000000e+00
	0.000000000000000e+00,0.000000000000000e+00
	1.000000000000000e+00,0.000000000000000e+00
	0.000000000000000e+00,0.000000000000000e+00
	0.000000000000000e+00,0.000000000000000e+00
	1.227303607206547e-01,7.766752975788788e-06
	1.416216938130816e-15,1.018881779036380e-08
	-1.227303607206561e-01,-7.776941793579153e-06
	1.227303607206556e-01,7.766752975843081e-06
	-1.227303607206522e-01,-7.766752975843079e-06
	1.416216938130816e-15,1.018881779036380e-08
	4.663753707384920e-04,2.951366130799740e-08
9		7.943282347242818e+00,-2.930965534768566e-188
	1.000000000000000e+00,0.000000000000000e+00
	0.000000000000000e+00,0.000000000000000e+00
	1.000000000000000e+00,0.000000000000000e+00
	0.000000000000000e+00,0.000000000000000e+00
	0.000000000000000e+00,0.000000000000000e+00
	1.227303607207881e-01,9.777762688348468e-06
	2.244552584291627e-15,1.282696163242934e-08
	-1.227303607207904e-01,-9.790589649980899e-06
	1.227303607207897e-01,9.777762688416818e-06
	-1.227303607207659e-01,-9.777762688416818e-06
	2.244552584291627e-15,1.282696163242934e-08
	4.663753707390018e-04,3.715549821572418e-08
10		1.000000000000001e+01,-2.930965534768566e-188
	1.000000000000000e+00,0.000000000000000e+00
	0.000000000000000e+00,0.000000000000000e+00
	1.000000000000000e+00,0.000000000000000e+00
	0.000000000000000e+00,0.000000000000000e+00
	0.000000000000000e+00,0.000000000000000e+00
	1.227303607209996e-01,1.230947391885473e-05
	3.557376110964738e-15,1.614818795517381e-08
	-1.227303607210032e-01,-1.232562210680991e-05
	1.227303607210023e-01,1.230947391894078e-05
	-1.227303607210501e-01,-1.230947391894078e-05
	3.557376110964738e-15,1.614818795517381e-08
	4.663753707398096e-04,4.677600089164799e-08
11		1.258925411794168e+01,-2.930965534768566e-188
	1.000000000000000e+00,0.000000000000000e+00
	0.000000000000000e+00,0.000000000000000e+00
	1.000000000000000e+00,0.000000000000000e+00
	0.000000000000000e+00,0.000000000000000e+00
	0.000000000000000e+00,0.000000000000000e+00
	1.227303607213348e-01,1.549670952226374e-05
	5.638061181291647e-15,2.032936417119622e-08
	-1.227303607213405e-01,-1.551703888643494e-05
	1.227303607213392e-01,1.549670952237206e-05
	-1.227303607213912e-01,-1.549670952237205e-05
	5.638061181291647e-15,2.032936417119622e-08
	4.663753707410899e-04,5.888749618460220e-08
12		1.584893192461115e+01,-2.930965534768566e-188
	1.000000000000000e+00,0.000000000000000e+00
	0.000000000000000e+00,0.000000000000000e+00
	1.000000000000000e+00,0.000000000000000e+00
	0.000000000000000e+00,0.000000000000000e+00
	0.000000000000000e+00,0.000000000000000e+00
	1.227303607218661e-01,1.950920141677043e-05
	8.935724784908005e-15,2.559315316073566e-08
	-1.227303607218750e-01,-1.953479456993117e-05
	1.227303607218732e-01,1.950920141690680e-05
	-1.227303607218460e-01,-1.950920141690680e-05
	8.935724784908005e-15,2.559315316073566e-08
	4.663753707431191e-04,7.413496538372763e-08
13		1.995262314968881e+01,-2.930965534768566e-188
	1.000000000000000e+00,0.000000000000000e+00
	0.000000000000000e+00,0.000000000000000e+00
	1.000000000000000e+00,0.000000000000000e+00
	0.000000000000000e+00,0.000000000000000e+00
	0.000000000000000e+00,0.000000000000000e+00
	1.227303607227081e-01,2.456062942738299e-05
	1.416216938130576e-14,3.221987088198806e-08
	-1.227303607227221e-01,-2.459284929826498e-05
	1.227303607227196e-01,2.456062942755467e-05
	-1.227303607226986e-01,-2.456062942755467e-05
	1.416216938130576e-14,3.221987088198806e-08
	4.663753707463352e-04,9.333039182405534e-08
14		2.511886431509582e+01,-2.930965534768566e-188
	1.000000000000000e+00,0.000000000000000e+00
	0.000000000000000e+00,0.000000000000000e+00
	1.000000000000000e+00,0.000000000000000e+00
	0.000000000000000e+00,0.000000000000000e+00
	0.000000000000000e+00,0.000000000000000e+00
	1.227303607240425e-01,3.092000051579192e-05
	2.244552584291024e-14,4.056241421805718e-08
	-1.227303607240650e-01,-3.096056293000998e-05
	1.227303607240609e-01,3.092000051600805e-05
	-1.227303607240628e-01,-3.092000051600804e-05
	2.244552584291024e-14,4.056241421805718e-08
	4.663753707514324e-04,1.174960019600093e-07
15		3.162277660168382e+01,-2.930965534768566e-188
	1.000000000000000e+00,0.000000000000000e+00
	0.000000000000000e+00,0.000000000000000e+00
	1.000000000000000e+00,0.000000000000000e+00
	0.000000000000000e+00,0.000000000000000e+00
	0.000000000000000e+00,0.000000000000000e+00
	1.227303607261575e-01,3.892597438201891e-05
	3.557376110963221e-14,5.106505402282418e-08
	-1.227303607261930e-01,-3.897703943604174e-05
	1.227303607261868e-01,3.892597438229099e-05
	-1.227303607261661e-01,-3.892597438229098e-05
	3.557376110963221e-14,5.106505402282418e-08
	4.663753707595108e-04,1.479187026516718e-07
16		3.981071705534977e+01,-2.930965534768566e-188
	1.000000000000000e+00,0.000000000000000e+00
	0.000000000000000e+00,0.000000000000000e+00
	1.000000000000000e+00,0.000000000000000e+00
	0.000000000000000e+00,0.000000000000000e+00
	0.000000000000000e+00,0.000000000000000e+00
	1.227303607295095e-01,4.900489832837175e-05
	5.638061181287832e-14,6.428709416395728e-08
	-1.227303607295658e-01,-4.906918542253570e-05
	1.227303607295561e-01,4.900489832871425e-05
	-1.227303607296335e-01,-4.900489832871425e-05
	5.638061181287832e-14,6.428709416395728e-08
	4.663753707723141e-04,1.862186136478125e-07
17		5.011872336272729e+01,-2.930965534768566e-188
	1.000000000000000e+00,0.000000000000000e+00
	0.000000000000000e+00,0.000000000000000e+00
	1.000000000000000e+00,0.000000000000000e+00
	0.000000000000000e+00,0.000000000000000e+00
	0.000000000000000e+00,0.000000000000000e+00
	1.227303607348221e-01,6.169351180797547e-05
	8.935724784898417e-14,8.093265649337426e-08
	-1.227303607349114e-01,-6.177444446446885e-05
	1.227303607348961e-01,6.169351180840664e-05
	-1.227303607349199e-01,-6.169351180840664e-05
	8.935724784898417e-14,8.093265649337426e-08
	4.663753707926061e-04,2.344353448703065e-07
18		6.309573444801940e+01,-2.930965534768566e-188
	1.000000000000000e+00,0.000000000000000e+00
	0.000000000000000e+00,0.000000000000000e+00
	1.000000000000000e+00,0.000000000000000e+00
	0.000000000000000e+00,0.000000000000000e+00
	0.000000000000000e+00,0.000000000000000e+00
	1.227303607432420e-01,7.766752975788142e-05
	1.416216938128166e-13,1.018881779034452e-07
	-1.227303607433837e-01,-7.776941793578486e-05
	1.227303607433595e-01,7.766752975842414e-05
	-1.227303607433896e-01,-7.766752975842414e-05
	1.416216938128166e-13,1.018881779034452e-07
	4.663753708247668e-04,2.951366130799487e-07
19		7.943282347242825e+01,-2.930965534768566e-188
	1.000000000000000e+00,0.000000000000000e+00
	0.000000000000000e+00,0.000000000000000e+00
	1.000000000000000e+00,0.000000000000000e+00
	0.000000000000000e+00,0.000000000000000e+00
	0.000000000000000e+00,0.000000000000000e+00
	1.227303607565866e-01,9.777762688347176e-05
	2.244552584284970e-13,1.282696163239086e-07
	-1.227303607568111e-01,-9.790589649979567e-05
	1.227303607567730e-01,9.777762688415489e-05
	-1.227303607568047e-01,-9.777762688415488e-05
	2.244552584284970e-13,1.282696163239086e-07
	4.663753708757381e-04,3.715549821571914e-07
20		1.000000000000001e+02,-2.930965534768566e-188
	1.000000000000000e+00,0.000000000000000e+00
	0.000000000000000e+00,0.000000000000000e+00
	1.000000000000000e+00,0.000000000000000e+00
	0.000000000000000e+00,0.000000000000000e+00
	0.000000000000000e+00,0.000000000000000e+00
	1.227303607777364e-01,1.230947391885214e-04
	3.557376110948012e-13,1.614818795509702e-07
	-1.227303607780923e-01,-1.232562210680724e-04
	1.227303607780319e-01,1.230947391893812e-04
	-1.227303607780641e-01,-1.230947391893812e-04
	3.557376110948012e-13,1.614818795509702e-07
	4.663753709565221e-04,4.677600089163788e-07
21		1.258925411794169e+02,-2.930965534768566e-188
	1.000000000000000e+00,0.000000000000000e+00
	0.000000000000000e+00,0.000000000000000e+00
	1.000000000000000e+00,0.000000000000000e+00
	0.000000000000000e+00,0.000000000000000e+00
	0.000000000000000e+00,0.000000000000000e+00
	1.227303608112566e-01,1.549670952225856e-04
	5.638061181249630e-13,2.032936417104301e-07
	-1.227303608118204e-01,-1.551703888642961e-04
	1.227303608117251e-01,1.549670952236675e-04
	-1.227303608117722e-01,-1.549670952236675e-04
	5.638061181249630e-13,2.032936417104301e-07
	4.663753710845560e-04,5.888749618458201e-07
22		1.584893192461116e+02,-2.930965534768566e-188
	1.000000000000000e+00,0.000000000000000e+00
	0.000000000000000e+00,0.000000000000000e+00
	1.000000000000000e+00,0.000000000000000e+00
	0.000000000000000e+00,0.000000000000000e+00
	0.000000000000000e+00,0.000000000000000e+00
	1.227303608643825e-01,1.950920141676010e-04
	8.935724784802449e-13,2.559315316042993e-07
	-1.227303608652761e-01,-1.953479456992053e-04
	1.227303608651251e-01,1.950920141689619e-04
	-1.227303608651482e-01,-1.950920141689619e-04
	8.935724784802449e-13,2.559315316042993e-07
	4.663753712874763e-04,7.413496538368732e-07
23		1.995262314968883e+02,-2.930965534768566e-188
	1.000000000000000e+00,0.000000000000000e+00
	0.000000000000000e+00,0.000000000000000e+00
	1.000000000000000e+00,0.000000000000000e+00
	0.000000000000000e+00,0.000000000000000e+00
	0.000000000000000e+00,0.000000000000000e+00
	1.227303609485814e-01,2.456062942736236e-04
	1.416216938104060e-12,3.221987088137804e-07
	-1.227303609499976e-01,-2.459284929824374e-04
	1.227303609497585e-01,2.456062942753348e-04
	-1.227303609497881e-01,-2.456062942753348e-04
	1.416216938104060e-12,3.221987088137804e-07
	4.663753716090832e-04,9.333039182397486e-07
24		2.511886431509584e+02,-2.930965534768566e-188
	1.000000000000000e+00,0.000000000000000e+00
	0.000000000000000e+00,0.000000000000000e+00
	1.000000000000000e+00,0.000000000000000e+00
	0.000000000000000e+00,0.000000000000000e+00
	0.000000000000000e+00,0.000000000000000e+00
	1.227303610820275e-01,3.092000051575075e-04
	2.244552584224417e-12,4.056241421684002e-07
	-1.227303610842722e-01,-3.096056292996760e-04
	1.227303610838934e-01,3.092000051596577e-04
	-1.227303610838817e-01,-3.092000051596577e-04
	2.244552584224417e-12,4.056241421684002e-07
	4.663753721187958e-04,1.174960019598486e-06
25		3.162277660168385e+02,-2.930965534768566e-188
	1.000000000000000e+00,0.000000000000000e+00
	0.000000000000000e+00,0.000000000000000e+00
	1.000000000000000e+00,0.000000000000000e+00
	0.000000000000000e+00,0.000000000000000e+00
	0.000000000000000e+00,0.000000000000000e+00
	1.227303612935255e-01,3.892597438193674e-04
	3.557376110795907e-12,5.106505402039557e-07
	-1.227303612970829e-01,-3.897703943595714e-04
	1.227303612964829e-01,3.892597438220661e-04
	-1.227303612965329e-01,-3.892597438220661e-04
	3.557376110795907e-12,5.106505402039557e-07
	4.663753729266357e-04,1.479187026513511e-06
26		3.981071705534980e+02,-2.930965534768566e-188
	1.000000000000000e+00,0.000000000000000e+00
	0.000000000000000e+00,0.000000000000000e+00
	1.000000000000000e+00,0.000000000000000e+00
	0.000000000000000e+00,0.000000000000000e+00
	0.000000000000000e+00,0.000000000000000e+00
	1.227303616287272e-01,4.900489832820779e-04
	5.638061180867559e-12,6.428709415911156e-07
	-1.227303616343652e-01,-4.906918542236691e-04
	1.227303616334145e-01,4.900489832854590e-04
	-1.227303616334439e-01,-4.900489832854589e-04
	5.638061180867559e-12,6.428709415911156e-07
	4.663753742069758e-04,1.862186136471727e-06
27		5.011872336272732e+02,-2.930965534768566e-188
	1.000000000000000e+00,0.000000000000000e+00
	0.000000000000000e+00,0.000000000000000e+00
	1.000000000000000e+00,0.000000000000000e+00
	0.000000000000000e+00,0.000000000000000e+00
	0.000000000000000e+00,0.000000000000000e+00
	1.227303621599861e-01,6.169351180764831e-04
	8.935724783842729e-12,8.093265648370577e-07
	-1.227303621689219e-01,-6.177444446413203e-04
	1.227303621674151e-01,6.169351180807070e-04
	-1.227303621674309e-01,-6.169351180807069e-04
	8.935724783842729e-12,8.093265648370577e-07
	4.663753762361781e-04,2.344353448690299e-06
28		6.309573444801945e+02,-2.930965534768566e-188
	1.000000000000000e+00,0.000000000000000e+00
	0.000000000000000e+00,0.000000000000000e+00
	1.000000000000000e+00,0.000000000000000e+00
	0.000000000000000e+00,0.000000000000000e+00
	0.000000000000000e+00,0.000000000000000e+00
	1.227303630019747e-01,7.766752975722864e-04
	1.416216937862989e-11,1.018881778841540e-06
	-1.227303630161370e-01,-7.776941793511279e-04
	1.227303630137490e-01,7.766752975775382e-04
	-1.227303630137726e-01,-7.766752975775381e-04
	1.416216937862989e-11,1.018881778841540e-06
	4.663753794522469e-04,2.951366130774015e-06
29		7.943282347242831e+02,-2.930965534768566e-188
	1.000000000000000e+00,0.000000000000000e+00
	0.000000000000000e+00,0.000000000000000e+00
	1.000000000000000e+00,0.000000000000000e+00
	0.000000000000000e+00,0.000000000000000e+00
	0.000000000000000e+00,0.000000000000000e+00
	1.227303643364367e-01,9.777762688216922e-04
	2.244552583618873e-11,1.282696162854175e-06
	-1.227303643588824e-01,-9.790589649845466e-04
	1.227303643550978e-01,9.777762688281736e-04
	-1.227303643551636e-01,-9.777762688281733e-04
	2.244552583618873e-11,1.282696162854175e-06
	4.663753845493724e-04,3.715549821521087e-06
30		1.000000000000002e+03,-2.930965534768566e-188
	1.000000000000000e+00,0.000000000000000e+00
	0.000000000000000e+00,0.000000000000000e+00
	1.000000000000000e+00,0.000000000000000e+00
	0.000000000000000e+00,0.000000000000000e+00
	0.000000000000000e+00,0.000000000000000e+00
	1.227303664514165e-01,1.230947391859225e-03
	3.557376109274854e-11,1.614818794741704e-06
	-1.227303664869904e-01,-1.232562210653967e-03
	1.227303664809924e-01,1.230947391867124e-03
	-1.227303664810506e-01,-1.230947391867124e-03
	3.557376109274854e-11,1.614818794741704e-06
	4.663753926277721e-04,4.677600089062375e-06
31		1.258925411794170e+03,-2.930965534768566e-188
	1.000000000000000e+00,0.000000000000000e+00
	0.000000000000000e+00,0.000000000000000e+00
	1.000000000000000e+00,0.000000000000000e+00
	0.000000000000000e+00,0.000000000000000e+00
	0.000000000000000e+00,0.000000000000000e+00
	1.227303698034336e-01,1.549670952174001e-03
	5.638061177046837e-11,2.032936415571942e-06
	-1.227303698598142e-01,-1.551703888589573e-03
	1.227303698503084e-01,1.549670952183425e-03
	-1.227303698503874e-01,-1.549670952183425e-03
	5.638061177046837e-11,2.032936415571942e-06
	4.663754054311728e-04,5.888749618255852e-06
32		1.584893192461117e+03,-2.930965534768566e-188
	1.000000000000000e+00,0.000000000000000e+00
	0.000000000000000e+00,0.000000000000000e+00
	1.000000000000000e+00,0.000000000000000e+00
	0.000000000000000e+00,0.000000000000000e+00
	0.000000000000000e+00,0.000000000000000e+00
	1.227303751160226e-01,1.950920141572543e-03
	8.935724774245506e-11,2.559315312985535e-06
	-1.227303752053798e-01,-1.953479456885529e-03
	1.227303751903144e-01,1.950920141583371e-03
	-1.227303751903719e-01,-1.950920141583371e-03
	8.935724774245506e-11,2.559315312985535e-06
	4.663754257231954e-04,7.413496537964988e-06
33		1.995262314968884e+03,-2.930965534768566e-188
	1.000000000000000e+00,0.000000000000000e+00
	0.000000000000000e+00,0.000000000000000e+00
	1.000000000000000e+00,0.000000000000000e+00
	0.000000000000000e+00,0.000000000000000e+00
	0.000000000000000e+00,0.000000000000000e+00
	1.227303835359087e-01,2.456062942529792e-03
	1.416216935452275e-10,3.221987082037372e-06
	-1.227303836775306e-01,-2.459284929611830e-03
	1.227303836536534e-01,2.456062942541355e-03
	-1.227303836536748e-01,-2.456062942541355e-03
	1.416216935452275e-10,3.221987082037372e-06
	4.663754578838838e-04,9.333039181591909e-06
34		2.511886431509586e+03,-2.930965534768566e-188
	1.000000000000000e+00,0.000000000000000e+00
	0.000000000000000e+00,0.000000000000000e+00
	1.000000000000000e+00,0.000000000000000e+00
	0.000000000000000e+00,0.000000000000000e+00
	0.000000000000000e+00,0.000000000000000e+00
	1.227303968805290e-01,3.092000051163165e-03
	2.244552577563432e-10,4.056241409512040e-06
	-1.227303971049842e-01,-3.096056292572676e-03
	1.227303970671419e-01,3.092000051173593e-03
	-1.227303970671301e-01,-3.092000051173592e-03
	2.244552577563432e-10,4.056241409512040e-06
	4.663755088551399e-04,1.174960019437752e-05
35		3.162277660168386e+03,-2.930965534768566e-188
	1.000000000000000e+00,0.000000000000000e+00
	0.000000000000000e+00,0.000000000000000e+00
	1.000000000000000e+00,0.000000000000000e+00
	0.000000000000000e+00,0.000000000000000e+00
	0.000000000000000e+00,0.000000000000000e+00
	1.227304180303268e-01,3.892597437371802e-03
	3.557376094064268e-10,5.106505377753299e-06
	-1.227304183860645e-01,-3.897703942749556e-03
	1.227304183260884e-01,3.892597437376695e-03
	-1.227304183261140e-01,-3.892597437376695e-03
	3.557376094064268e-10,5.106505377753299e-06
	4.663755896391368e-04,1.479187026192805e-05
36		3.981071705534981e+03,-2.930965534768566e-188
	1.000000000000000e+00,0.000000000000000e+00
	0.000000000000000e+00,0.000000000000000e+00
	1.000000000000000e+00,0.000000000000000e+00
	0.000000000000000e+00,0.000000000000000e+00
	0.000000000000000e+00,0.000000000000000e+00
	1.227304515504973e-01,4.900489831180925e-03
	5.638061138839576e-10,6.428709367453695e-06
	-1.227304521143034e-01,-4.906918540548380e-03
	1.227304520192480e-01,4.900489831170653e-03
	-1.227304520192547e-01,-4.900489831170653e-03
	5.638061138839576e-10,6.428709367453695e-06
	4.663757176731433e-04,1.862186135831831e-05
37		5.011872336272734e+03,-2.930965534768566e-188
	1.000000000000000e+00,0.000000000000000e+00
	0.000000000000000e+00,0.000000000000000e+00
	1.000000000000000e+00,0.000000000000000e+00
	0.000000000000000e+00,0.000000000000000e+00
	0.000000000000000e+00,0.000000000000000e+00
	1.227305046763873e-01,6.169351177492894e-03
	8.935724678273203e-10,8.093265551685232e-06
	-1.227305055699598e-01,-6.177444443044580e-03
	1.227305054193073e-01,6.169351177447174e-03
	-1.227305054193266e-01,-6.169351177447173e-03
	8.935724678273203e-10,8.093265551685232e-06
	4.663759205933686e-04,2.344353447413539e-05
38		6.309573444801948e+03,-2.930965534768566e-188
	1.000000000000000e+00,0.000000000000000e+00
	0.000000000000000e+00,0.000000000000000e+00
	1.000000000000000e+00,0.000000000000000e+00
	0.000000000000000e+00,0.000000000000000e+00
	0.000000000000000e+00,0.000000000000000e+00
	1.227305888752487e-01,7.766752969194485e-03
	1.416216911345123e-09,1.018881759550277e-05
	-1.227305902914656e-01,-7.776941786789989e-03
	1.227305900526977e-01,7.766752969071507e-03
	-1.227305900527540e-01,-7.766752969071506e-03
	1.416216911345123e-09,1.018881759550277e-05
	4.663762422002523e-04,2.951366128226542e-05
39		7.943282347242834e+03,-2.930965534768566e-188
	1.000000000000000e+00,0.000000000000000e+00
	0.000000000000000e+00,0.000000000000000e+00
	1.000000000000000e+00,0.000000000000000e+00
	0.000000000000000e+00,0.000000000000000e+00
	0.000000000000000e+00,0.000000000000000e+00
	1.227307223214509e-01,9.777762675191095e-03
	2.244552517009006e-09,1.282696124363047e-05
	-1.227307245660034e-01,-9.790589636434727e-03
	1.227307241875820e-01,9.777762674905746e-03
	-1.227307241875906e-01,-9.777762674905743e-03
	2.244552517009006e-09,1.282696124363047e-05
	4.663767519128124e-04,3.715549816438211e-05
40		1.000000000000003e+04,-2.930965534768566e-188
	1.000000000000000e+00,0.000000000000000e+00
	0.000000000000000e+00,0.000000000000000e+00
	1.000000000000000e+00,0.000000000000000e+00
	0.000000000000000e+00,0.000000000000000e+00
	0.000000000000000e+00,0.000000000000000e+00
	1.227309338194281e-01,1.230947389260231e-02
	3.557375941958429e-09,1.614818717941806e-05
	-1.227309373768041e-01,-1.232562207978173e-02
	1.227309367770466e-01,1.230947389198263e-02
	-1.227309367770886e-01,-1.230947389198263e-02
	3.557375941958429e-09,1.614818717941806e-05
	4.663775597527780e-04,4.677600078920703e-05
41		1.258925411794171e+04,-2.930965534768566e-188
	1.000000000000000e+00,0.000000000000000e+00
	0.000000000000000e+00,0.000000000000000e+00
	1.000000000000000e+00,0.000000000000000e+00
	0.000000000000000e+00,0.000000000000000e+00
	0.000000000000000e+00,0.000000000000000e+00
	1.227312690211317e-01,1.549670946988325e-02
	5.638060756766990e-09,2.032936262336004e-05
	-1.227312746591925e-01,-1.551703883250661e-02
	1.227312737086412e-01,1.549670946858347e-02
	-1.227312737086663e-01,-1.549670946858347e-02
	5.638060756766990e-09,2.032936262336004e-05
	4.663788400928373e-04,5.888749598020557e-05
42		1.584893192461118e+04,-2.930965534768566e-188
	1.000000000000000e+00,0.000000000000000e+00
	0.000000000000000e+00,0.000000000000000e+00
	1.000000000000000e+00,0.000000000000000e+00
	0.000000000000000e+00,0.000000000000000e+00
	0.000000000000000e+00,0.000000000000000e+00
	1.227318002800282e-01,1.950920131225758e-02
	8.935723718550305e-09,2.559315007239657e-05
	-1.227318092157519e-01,-1.953479446232998e-02
	1.227318077092299e-01,1.950920130958442e-02
	-1.227318077092718e-01,-1.950920130958442e-02
	8.935723718550305e-09,2.559315007239657e-05
	4.663808692950745e-04,7.413496497590263e-05
43		1.995262314968885e+04,-2.930965534768566e-188
	1.000000000000000e+00,0.000000000000000e+00
	0.000000000000000e+00,0.000000000000000e+00
	1.000000000000000e+00,0.000000000000000e+00
	0.000000000000000e+00,0.000000000000000e+00
	0.000000000000000e+00,0.000000000000000e+00
	1.227326422686329e-01,2.456062921885241e-02
	1.416216670273648e-08,3.221986471994184e-05
	-1.227326564307996e-01,-2.459284908357235e-02
	1.227326540431234e-01,2.456062921341836e-02
	-1.227326540431477e-01,-2.456062921341835e-02
	1.416216670273648e-08,3.221986471994184e-05
	4.663840853638697e-04,9.333039101033735e-05
44		2.511886431509587e+04,-2.930965534768566e-188
	1.000000000000000e+00,0.000000000000000e+00
	0.000000000000000e+00,0.000000000000000e+00
	1.000000000000000e+00,0.000000000000000e+00
	0.000000000000000e+00,0.000000000000000e+00
	0.000000000000000e+00,0.000000000000000e+00
	1.227339767306309e-01,3.092000009971868e-02
	2.244551911464909e-08,4.056240192315990e-05
	-1.227339991761500e-01,-3.096056250164185e-02
	1.227339953919386e-01,3.092000008874990e-02
	-1.227339953919682e-01,-3.092000008874990e-02
	2.244551911464909e-08,4.056240192315990e-05
	4.663891824893672e-04,1.174960003364283e-04
45		3.162277660168388e+04,-2.930965534768566e-188
	1.000000000000000e+00,0.000000000000000e+00
	0.000000000000000e+00,0.000000000000000e+00
	1.000000000000000e+00,0.000000000000000e+00
	0.000000000000000e+00,0.000000000000000e+00
	0.000000000000000e+00,0.000000000000000e+00
	1.227360917103424e-01,3.892597355184360e-02
	3.557374420900719e-08,5.106502949128320e-05
	-1.227361272840866e-01,-3.897703858133490e-02
	1.227361212865164e-01,3.892597352979885e-02
	-1.227361212866072e-01,-3.892597352979885e-02
	3.557374420900719e-08,5.106502949128320e-05
	4.663972608887629e-04,1.479186994122017e-04
46		3.981071705534984e+04,-2.930965534768566e-188
	1.000000000000000e+00,0.000000000000000e+00
	0.000000000000000e+00,0.000000000000000e+00
	1.000000000000000e+00,0.000000000000000e+00
	0.000000000000000e+00,0.000000000000000e+00
	0.000000000000000e+00,0.000000000000000e+00
	1.227394437272277e-01,4.900489667195422e-02
	5.638056936043933e-08,6.428704521711153e-05
	-1.227395001077971e-01,-4.906918371717133e-02
	1.227394906022903e-01,4.900489662776883e-02
	-1.227394906022710e-01,-4.900489662776882e-02
	5.638056936043933e-08,6.428704521711153e-05
	4.664100642887036e-04,1.862186071842199e-04
47		5.011872336272738e+04,-2.930965534768566e-188
	1.000000000000000e+00,0.000000000000000e+00
	0.000000000000000e+00,0.000000000000000e+00
	1.000000000000000e+00,0.000000000000000e+00
	0.000000000000000e+00,0.000000000000000e+00
	0.000000000000000e+00,0.000000000000000e+00
	1.227447563158151e-01,6.169350850298797e-02
	8.935714121332535e-08,8.093255883162043e-05
	-1.227448456729564e-01,-6.177444106181960e-02
	1.227448306077469e-01,6.169350841457433e-02
	-1.227448306077576e-01,-6.169350841457432e-02
	8.935714121332535e-08,8.093255883162043e-05
	4.664303563094381e-04,2.344353319737437e-04
48		6.309573444801952e+04,-2.930965534768566e-188
	1.000000000000000e+00,0.000000000000000e+00
	0.000000000000000e+00,0.000000000000000e+00
	1.000000000000000e+00,0.000000000000000e+00
	0.000000000000000e+00,0.000000000000000e+00
	0.000000000000000e+00,0.000000000000000e+00
	1.227531762009121e-01,7.766752316356439e-02
	1.416214259563386e-07,1.018879830427639e-04
	-1.227533178223381e-01,-7.776941114660718e-02
	1.227532939455984e-01,7.766752298683856e-02
	-1.227532939456637e-01,-7.766752298683854e-02
	1.416214259563386e-07,1.018879830427639e-04
	4.664625169932737e-04,2.951365873479235e-04
49		7.943282347242841e+04,-2.930965534768566e-188
	1.000000000000000e+00,0.000000000000000e+00
	0.000000000000000e+00,0.000000000000000e+00
	1.000000000000000e+00,0.000000000000000e+00
	0.000000000000000e+00,0.000000000000000e+00
	0.000000000000000e+00,0.000000000000000e+00
	1.227665208185050e-01,9.777761372607970e-02
	2.244545856041872e-07,1.282692275261641e-04
	-1.227667452730907e-01,-9.790588295360587e-02