Title: voltage divider netlist
Date: Sun Aug  4 17:38:24  2024
Plotname: Operating Point
Flags: real
No. Variables: 3
No. Points: 1
Variables:
	0	v(in)	voltage
	1	v(out)	voltage
	2	i(v1)	current
Values:
0	1.000000000000000e+00
	6.666666666666666e-01
	-3.333333333333334e-04
