Title: switch_oscillator
Date: Thu Nov 28 21:14:56  2024
Plotname: Transient Analysis
Flags: real
No. Variables: 22
No. Points: 7497    
Variables:
	0	time	time
	1	v(vdd2)	voltage
	2	v(vdd)	voltage
	3	v(n2)	voltage
	4	v(n1)	voltage
	5	v(n3)	voltage
	6	v(n4)	voltage
	7	v(n5)	voltage
	8	v(n6)	voltage
	9	v(n7)	voltage
	10	v(n8)	voltage
	11	v(n9)	voltage
	12	v(n10)	voltage
	13	v(n11)	voltage
	14	v(n12)	voltage
	15	v(n13)	voltage
	16	v(n14)	voltage
	17	v(n15)	voltage
	18	v(n16)	voltage
	19	v(osc_out)	voltage
	20	i(vmeasure)	current
	21	i(vdd)	current
Values:
0		0.000000000000000e+00
	3.000000000000000e+00
	3.000000000000000e+00
	2.999999997000000e-09
	2.999999997000000e+00
	2.999999997000000e+00
	2.999999997000000e-09
	2.999999997000000e+00
	2.999999997000000e-09
	2.999999997000000e+00
	2.999999997000000e-09
	2.999999997000000e+00
	2.999999997000000e-09
	2.999999997000000e+00
	2.999999997000000e-09
	2.999999997000000e+00
	2.999999997000000e-09
	2.999999997000000e+00
	2.999999997000000e-09
	2.500000000000000e-01
	2.750000048000009e-03
	-2.750000048000009e-03
1		5.000000000000001e-13
	3.000000000000000e+00
	3.000000000000000e+00
	2.999999805231877e-09
	2.999999997000001e+00
	2.999999997000001e+00
	2.999999805231877e-09
	2.999999997000001e+00
	2.999999805231877e-09
	2.999999997000001e+00
	2.999999805231877e-09
	2.999999997000001e+00
	2.999999805231877e-09
	2.999999997000001e+00
	2.999999805231877e-09
	2.999999997000001e+00
	2.999999805231877e-09
	2.999999997000001e+00
	2.999999805231877e-09
	2.568578553609556e-01
	1.371571120447224e-03
	-1.371571120447224e-03
2		1.000000000000000e-12
	3.000000000000000e+00
	3.000000000000000e+00
	2.999999528368280e-09
	2.999999997000001e+00
	2.999999997000001e+00
	2.999999528368280e-09
	2.999999997000001e+00
	2.999999528368280e-09
	2.999999997000001e+00
	2.999999528368280e-09
	2.999999997000001e+00
	2.999999528368280e-09
	2.999999997000001e+00
	2.999999528368280e-09
	2.999999997000001e+00
	2.999999528368280e-09
	2.999999997000001e+00
	2.999999528368280e-09
	2.636986088382010e-01
	1.368150743714498e-03
	-1.368150743714498e-03
3		2.000000000000000e-12
	3.000000000000000e+00
	3.000000000000000e+00
	2.999999052757637e-09
	2.999999997000002e+00
	2.999999997000002e+00
	2.999999052757637e-09
	2.999999997000002e+00
	2.999999052757637e-09
	2.999999997000002e+00
	2.999999052757637e-09
	2.999999997000002e+00
	2.999999052757637e-09
	2.999999997000002e+00
	2.999999052757637e-09
	2.999999997000002e+00
	2.999999052757637e-09
	2.999999997000002e+00
	2.999999052757637e-09
	2.773391940370545e-01
	1.361330451116416e-03
	-1.361330451116416e-03
4		4.000000000000001e-12
	3.000000000000000e+00
	3.000000000000000e+00
	2.999999023205648e-09
	2.999999997000002e+00
	2.999999997000002e+00
	2.999999023205648e-09
	2.999999997000002e+00
	2.999999023205648e-09
	2.999999997000002e+00
	2.999999023205648e-09
	2.999999997000002e+00
	2.999999023205648e-09
	2.999999997000002e+00
	2.999999023205648e-09
	2.999999997000002e+00
	2.999999023205648e-09
	2.999999997000002e+00
	2.999999023205648e-09
	3.044251115251594e-01
	1.347787492387478e-03
	-1.347787492387478e-03
5		8.000000000000001e-12
	3.000000000000000e+00
	3.000000000000000e+00
	2.999999129186048e-09
	2.999999997000001e+00
	2.999999997000001e+00
	2.999999129186048e-09
	2.999999997000001e+00
	2.999999129186048e-09
	2.999999997000001e+00
	2.999999129186048e-09
	2.999999997000001e+00
	2.999999129186048e-09
	2.999999997000001e+00
	2.999999129186048e-09
	2.999999997000001e+00
	2.999999129186048e-09
	2.999999997000001e+00
	2.999999129186048e-09
	3.578002426001482e-01
	1.321099926877824e-03
	-1.321099926877824e-03
6		1.600000000000000e-11
	3.000000000000000e+00
	3.000000000000000e+00
	2.999999174790650e-09
	2.999999997000000e+00
	2.999999997000000e+00
	2.999999174790650e-09
	2.999999997000000e+00
	2.999999174790650e-09
	2.999999997000000e+00
	2.999999174790650e-09
	2.999999997000000e+00
	2.999999174790650e-09
	2.999999997000000e+00
	2.999999174790650e-09
	2.999999997000000e+00
	2.999999174790650e-09
	2.999999997000000e+00
	2.999999174790650e-09
	4.614261205557274e-01
	1.269286987952133e-03
	-1.269286987952133e-03
7		3.200000000000001e-11
	3.000000000000000e+00
	3.000000000000000e+00
	2.999999262866711e-09
	2.999999997000000e+00
	2.999999997000000e+00
	2.999999262866711e-09
	2.999999997000000e+00
	2.999999262866711e-09
	2.999999997000000e+00
	2.999999262866711e-09
	2.999999997000000e+00
	2.999999262866711e-09
	2.999999997000000e+00
	2.999999262866711e-09
	2.999999997000000e+00
	2.999999262866711e-09
	2.999999997000000e+00
	2.999999262866711e-09
	6.568004035197178e-01
	1.171599846568459e-03
	-1.171599846568459e-03
8		4.363631152467270e-11
	3.000000000000000e+00
	3.000000000000000e+00
	2.999998714180387e-09
	2.999999997000000e+00
	2.999999997000000e+00
	2.999998714180387e-09
	2.999999997000000e+00
	2.999998714180387e-09
	2.999999997000000e+00
	2.999998714180387e-09
	2.999999997000000e+00
	2.999998714180387e-09
	2.999999997000000e+00
	2.999998714180387e-09
	2.999999997000000e+00
	2.999998714180387e-09
	2.999999997000000e+00
	2.999998714180387e-09
	7.894083820787320e-01
	1.105295857355582e-03
	-1.105295857355582e-03
9		5.323215510130490e-11
	3.000000000000000e+00
	3.000000000000000e+00
	2.999998676480320e-09
	2.999999997000001e+00
	2.999999997000001e+00
	2.999998676480320e-09
	2.999999997000001e+00
	2.999998676480320e-09
	2.999999997000001e+00
	2.999998676480320e-09
	2.999999997000001e+00
	2.999998676480320e-09
	2.999999997000001e+00
	2.999998676480320e-09
	2.999999997000001e+00
	2.999998676480320e-09
	2.999999997000001e+00
	2.999998676480320e-09
	8.930701458221398e-01
	1.053464975534756e-03
	-1.053464975534756e-03
10		5.936874343814113e-11
	3.000000000000000e+00
	3.000000000000000e+00
	2.999998574228240e-09
	2.999999997000001e+00
	2.999999997000001e+00
	2.999998574228240e-09
	2.999999997000001e+00
	2.999998574228240e-09
	2.999999997000001e+00
	2.999998574228240e-09
	2.999999997000001e+00
	2.999998574228240e-09
	2.999999997000001e+00
	2.999998574228240e-09
	2.999999997000001e+00
	2.999998574228240e-09
	2.999999997000001e+00
	2.999998574228240e-09
	9.567725493839293e-01
	1.021613773785547e-03
	-1.021613773785547e-03
11		6.603791321346546e-11
	3.000000000000000e+00
	3.000000000000000e+00
	2.999998770572934e-09
	2.999999997000001e+00
	2.999999997000001e+00
	2.999998770572934e-09
	2.999999997000001e+00
	2.999998770572934e-09
	2.999999997000001e+00
	2.999998770572934e-09
	2.999999997000001e+00
	2.999998770572934e-09
	2.999999997000001e+00
	2.999998770572934e-09
	2.999999997000001e+00
	2.999998770572934e-09
	2.999999997000001e+00
	2.999998770572934e-09
	1.023811718572932e+00
	9.880941892250784e-04
	-9.880941892250784e-04
12		6.964918533615639e-11
	3.000000000000000e+00
	3.000000000000000e+00
	2.999998950170925e-09
	2.999999997000000e+00
	2.999999997000000e+00
	2.999998950170925e-09
	2.999999997000000e+00
	2.999998950170925e-09
	2.999999997000000e+00
	2.999998950170925e-09
	2.999999997000000e+00
	2.999998950170925e-09
	2.999999997000000e+00
	2.999998950170925e-09
	2.999999997000000e+00
	2.999998950170925e-09
	2.999999997000000e+00
	2.999998950170925e-09
	1.059182527688577e+00
	9.704087846848231e-04
	-9.704087846848231e-04
13		7.280438329482723e-11
	3.000000000000000e+00
	3.000000000000000e+00
	2.999999058557440e-09
	2.968402747868438e+00
	2.999999997000000e+00
	2.999999058557440e-09
	2.999999997000000e+00
	2.999999058557440e-09
	2.999999997000000e+00
	2.999999058557440e-09
	2.999999997000000e+00
	2.999999058557440e-09
	2.999999997000000e+00
	2.999999058557440e-09
	2.999999997000000e+00
	2.999999058557440e-09
	2.999999997000000e+00
	2.999999058557440e-09
	1.089564736133590e+00
	2.455217677477362e-03
	-2.455217677477362e-03
14		7.581489901730366e-11
	3.000000000000000e+00
	3.000000000000000e+00
	2.999999307535615e-09
	2.929593462221001e+00
	2.999999996999999e+00
	2.999999307535615e-09
	2.999999996999999e+00
	2.999999307535615e-09
	2.999999996999999e+00
	2.999999307535615e-09
	2.999999996999999e+00
	2.999999307535615e-09
	2.999999996999999e+00
	2.999999307535615e-09
	2.999999996999999e+00
	2.999999307535615e-09
	2.999999996999999e+00
	2.999999307535615e-09
	1.118109140474645e+00
	2.440945475320970e-03
	-2.440945475320970e-03
15		7.899211535889506e-11
	3.000000000000000e+00
	3.000000000000000e+00
	2.999999145694667e-09
	2.886589124277128e+00
	2.999999996999999e+00
	2.999999145694667e-09
	2.999999996999999e+00
	2.999999145694667e-09
	2.999999996999999e+00
	2.999999145694667e-09
	2.999999996999999e+00
	2.999999145694667e-09
	2.999999996999999e+00
	2.999999145694667e-09
	2.999999996999999e+00
	2.999999145694667e-09
	2.999999996999999e+00
	2.999999145694667e-09
	1.147771394958333e+00
	2.426114348095691e-03
	-2.426114348095691e-03
16		8.437523517122148e-11
	3.000000000000000e+00
	3.000000000000000e+00
	2.999999122408236e-09
	2.815000489034306e+00
	2.999999996999998e+00
	2.999999122408236e-09
	2.999999996999998e+00
	2.999999122408236e-09
	2.999999996999998e+00
	2.999999122408236e-09
	2.999999996999998e+00
	2.999999122408236e-09
	2.999999996999998e+00
	2.999999122408236e-09
	2.999999996999998e+00
	2.999999122408236e-09
	2.999999996999998e+00
	2.999999122408236e-09
	1.196967716360247e+00
	2.401516187418143e-03
	-2.401516187418143e-03
17		9.412762002376218e-11
	3.000000000000000e+00
	3.000000000000000e+00
	2.999999177987832e-09
	2.693400218231704e+00
	2.999999996999998e+00
	2.999999177987832e-09
	2.999999996999998e+00
	2.999999177987832e-09
	2.999999996999998e+00
	2.999999177987832e-09
	2.999999996999998e+00
	2.999999177987832e-09
	2.999999996999998e+00
	2.999999177987832e-09
	2.999999996999998e+00
	2.999999177987832e-09
	2.999999996999998e+00
	2.999999177987832e-09
	1.282814542107846e+00
	2.358592774586769e-03
	-2.358592774586769e-03
18		1.136323897288436e-10
	3.000000000000000e+00
	3.000000000000000e+00
	2.999999329338126e-09
	2.481281932889072e+00
	2.999999996999997e+00
	2.999999329338126e-09
	2.999999996999997e+00
	2.999999329338126e-09
	2.999999996999997e+00
	2.999999329338126e-09
	2.999999996999997e+00
	2.999999329338126e-09
	2.999999996999997e+00
	2.999999329338126e-09
	2.999999996999997e+00
	2.999999329338126e-09
	2.999999996999997e+00
	2.999999329338126e-09
	1.442620961112571e+00
	2.278689565165335e-03
	-2.278689565165335e-03
19		1.429528485969240e-10
	3.000000000000000e+00
	3.000000000000000e+00
	2.999999660624443e-09
	2.228234782929487e+00
	2.999999996999997e+00
	2.999999660624443e-09
	2.999999996999997e+00
	2.999999660624443e-09
	2.999999996999997e+00
	2.999999660624443e-09
	2.999999996999997e+00
	2.999999660624443e-09
	2.999999996999997e+00
	2.999999660624443e-09
	2.999999996999997e+00
	2.999999660624443e-09
	2.999999996999997e+00
	2.999999660624443e-09
	1.655872888932407e+00
	2.172063601362025e-03
	-2.172063601362025e-03
20		1.639232198355766e-10
	3.000000000000000e+00
	3.000000000000000e+00
	2.999999838966988e-09
	2.087961822020219e+00
	2.999999996999997e+00
	2.999999838966988e-09
	2.999999996999997e+00
	2.999999838966988e-09
	2.999999996999997e+00
	2.999999838966988e-09
	2.999999996999997e+00
	2.999999838966988e-09
	2.999999996999997e+00
	2.999999838966988e-09
	2.999999996999997e+00
	2.999999838966988e-09
	2.999999996999997e+00
	2.999999838966988e-09
	1.790271620876950e+00
	2.104864235456727e-03
	-2.104864235456727e-03
21		1.790342846503461e-10
	3.000000000000000e+00
	3.000000000000000e+00
	2.999999841936916e-09
	2.004403278429927e+00
	2.999999996999998e+00
	2.999999841936916e-09
	2.999999996999998e+00
	2.999999841936916e-09
	2.999999996999998e+00
	2.999999841936916e-09
	2.999999996999998e+00
	2.999999841936916e-09
	2.999999996999998e+00
	2.999999841936916e-09
	2.999999996999998e+00
	2.999999841936916e-09
	2.999999996999998e+00
	2.999999841936916e-09
	1.878577786877969e+00
	2.060711152500394e-03
	-2.060711152500394e-03
22		1.863744331987116e-10
	3.000000000000000e+00
	3.000000000000000e+00
	2.999999637614892e-09
	1.968487845016626e+00
	2.999999996999998e+00
	2.999999637614892e-09
	2.999999996999998e+00
	2.999999637614892e-09
	2.999999996999998e+00
	2.999999637614892e-09
	2.999999996999998e+00
	2.999999637614892e-09
	2.999999996999998e+00
	2.999999637614892e-09
	2.999999996999998e+00
	2.999999637614892e-09
	2.999999996999998e+00
	2.999999637614892e-09
	1.919043668266968e+00
	2.040478211825236e-03
	-2.040478211825236e-03
23		1.984957798067987e-10
	3.000000000000000e+00
	3.000000000000000e+00
	3.000000235597187e-09
	1.914746606111873e+00
	2.999999996999998e+00
	3.000000235597187e-09
	2.999999996999998e+00
	3.000000235597187e-09
	2.999999996999998e+00
	3.000000235597187e-09
	2.999999996999998e+00
	3.000000235597187e-09
	2.999999996999998e+00
	3.000000235597187e-09
	2.999999996999998e+00
	3.000000235597187e-09
	2.999999996999998e+00
	3.000000235597187e-09
	1.982683417852720e+00
	2.008658337065115e-03
	-2.008658337065115e-03
24		2.031993343718963e-10
	3.000000000000000e+00
	3.000000000000000e+00
	5.318378261650223e-02
	1.895646820890979e+00
	2.999999996999998e+00
	3.000000368251722e-09
	2.999999996999998e+00
	3.000000368251722e-09
	2.999999996999998e+00
	3.000000368251722e-09
	2.999999996999998e+00
	3.000000368251722e-09
	2.999999996999998e+00
	3.000000368251722e-09
	2.999999996999998e+00
	3.000000368251722e-09
	2.999999996999998e+00
	3.000000368251722e-09
	2.006341767852341e+00
	3.496829159076245e-03
	-3.496829159076245e-03
25		2.081065572722248e-10
	3.000000000000000e+00
	3.000000000000000e+00
	1.168702621303410e-01
	1.876674947737047e+00
	2.999999996999998e+00
	3.000000020925968e-09
	2.999999996999998e+00
	3.000000020925968e-09
	2.999999996999998e+00
	3.000000020925968e-09
	2.999999996999998e+00
	3.000000020925968e-09
	2.999999996999998e+00
	3.000000020925968e-09
	2.999999996999998e+00
	3.000000020925968e-09
	2.999999996999998e+00
	3.000000020925968e-09
	2.030433140695056e+00
	3.484783472667161e-03
	-3.484783472667161e-03
26		2.138272057823869e-10
	3.000000000000000e+00
	3.000000000000000e+00
	1.915105863977942e-01
	1.855707552057188e+00
	2.999999996999997e+00
	2.999999455816565e-09
	2.999999996999997e+00
	2.999999455816565e-09
	2.999999996999997e+00
	2.999999455816565e-09
	2.999999996999997e+00
	2.999999455816565e-09
	2.999999996999997e+00
	2.999999455816565e-09
	2.999999996999997e+00
	2.999999455816565e-09
	2.999999996999997e+00
	2.999999455816565e-09
	2.057780566332683e+00
	3.471109759861979e-03
	-3.471109759861979e-03
27		2.236566968604264e-10
	3.000000000000000e+00
	3.000000000000000e+00
	3.126882109339766e-01
	1.787915284258109e+00
	2.999999996999997e+00
	2.999999049180092e-09
	2.999999996999997e+00
	2.999999049180092e-09
	2.999999996999997e+00
	2.999999049180092e-09
	2.999999996999997e+00
	2.999999049180092e-09
	2.999999996999997e+00
	2.999999049180092e-09
	2.999999996999997e+00
	2.999999049180092e-09
	2.999999996999997e+00
	2.999999049180092e-09
	2.102990968833466e+00
	2.842462201369328e-03
	-2.842462201369328e-03
28		2.423779297347852e-10
	3.000000000000000e+00
	3.000000000000000e+00
	5.154173390665137e-01
	1.643845784718108e+00
	2.999999996999998e+00
	2.999999038648022e-09
	2.999999996999998e+00
	2.999999038648022e-09
	2.999999996999998e+00
	2.999999038648022e-09
	2.999999996999998e+00
	2.999999038648022e-09
	2.999999996999998e+00
	2.999999038648022e-09
	2.999999996999998e+00
	2.999999038648022e-09
	2.999999996999998e+00
	2.999999038648022e-09
	2.183266495701827e+00
	2.730289688278053e-03
	-2.730289688278053e-03
29		2.632305168731249e-10
	3.000000000000000e+00
	3.000000000000000e+00
	7.022826836149266e-01
	1.486936473872833e+00
	2.999999996999998e+00
	2.999999035387218e-09
	2.999999996999998e+00
	2.999999035387218e-09
	2.999999996999998e+00
	2.999999035387218e-09
	2.999999996999998e+00
	2.999999035387218e-09
	2.999999996999998e+00
	2.999999035387218e-09
	2.999999996999998e+00
	2.999999035387218e-09
	2.999999996999998e+00
	2.999999035387218e-09
	2.264354563047647e+00
	2.611290999301599e-03
	-2.611290999301599e-03
30		2.855191560754581e-10
	3.000000000000000e+00
	3.000000000000000e+00
	8.638158095377040e-01
	1.331933731817645e+00
	2.999999996999998e+00
	2.999999567391521e-09
	2.999999996999998e+00
	2.999999567391521e-09
	2.999999996999998e+00
	2.999999567391521e-09
	2.999999996999998e+00
	2.999999567391521e-09
	2.999999996999998e+00
	2.999999567391521e-09
	2.999999996999998e+00
	2.999999567391521e-09
	2.999999996999998e+00
	2.999999567391521e-09
	2.342213674984212e+00
	2.494860072422129e-03
	-2.494860072422129e-03
31		3.026907885748498e-10
	3.000000000000000e+00
	3.000000000000000e+00
	9.655027105679199e-01
	1.222583913139890e+00
	2.999999996999998e+00
	2.999999593336389e-09
	2.999999996999998e+00
	2.999999593336389e-09
	2.999999996999998e+00
	2.999999593336389e-09
	2.999999996999998e+00
	2.999999593336389e-09
	2.999999996999998e+00
	2.999999593336389e-09
	2.999999996999998e+00
	2.999999593336389e-09
	2.999999996999998e+00
	2.999999593336389e-09
	2.396505663352503e+00
	2.413039168980776e-03
	-2.413039168980776e-03
32		3.150421428730138e-10
	3.000000000000000e+00
	3.000000000000000e+00
	1.028165090371040e+00
	1.149340662961299e+00
	2.999999996999998e+00
	2.999999534161042e-09
	2.999999996999998e+00
	2.999999534161042e-09
	2.999999996999998e+00
	2.999999534161042e-09
	2.999999996999998e+00
	2.999999534161042e-09
	2.999999996999998e+00
	2.999999534161042e-09
	2.999999996999998e+00
	2.999999534161042e-09
	2.999999996999998e+00
	2.999999534161042e-09
	2.432724087449781e+00
	2.358308331897659e-03
	-2.358308331897659e-03
33		3.211561478322064e-10
	3.000000000000000e+00
	3.000000000000000e+00
	1.056262393681691e+00
	1.114721618242649e+00
	2.999999996999999e+00
	2.999999367112745e-09
	2.999999996999999e+00
	2.999999367112745e-09
	2.999999996999999e+00
	2.999999367112745e-09
	2.999999996999999e+00
	2.999999367112745e-09
	2.999999996999999e+00
	2.999999367112745e-09
	2.999999996999999e+00
	2.999999367112745e-09
	2.999999996999999e+00
	2.999999367112745e-09
	2.449819071154966e+00
	2.332451317710947e-03
	-2.332451317710947e-03
34		3.251889429533146e-10
	3.000000000000000e+00
	3.000000000000000e+00
	1.073831833010209e+00
	1.092463886853692e+00
	2.999999996999999e+00
	2.999999132587657e-09
	2.999999996999999e+00
	2.999999132587657e-09
	2.999999996999999e+00
	2.999999132587657e-09
	2.999999996999999e+00
	2.999999132587657e-09
	2.999999996999999e+00
	2.999999132587657e-09
	2.999999996999999e+00
	2.999999132587657e-09
	2.999999996999999e+00
	2.999999132587657e-09
	2.460806136642012e+00
	2.315828919289747e-03
	-2.315828919289747e-03
35		3.282344444560139e-10
	3.000000000000000e+00
	3.000000000000000e+00
	1.086625371799092e+00
	1.075952084853206e+00
	2.999999996999998e+00
	2.999998727278737e-09
	2.999999996999998e+00
	2.999998727278737e-09
	2.999999996999998e+00
	2.999998727278737e-09
	2.999999996999998e+00
	2.999998727278737e-09
	2.999999996999998e+00
	2.999998727278737e-09
	2.999999996999998e+00
	2.999998727278737e-09
	2.999999996999998e+00
	2.999998727278737e-09
	2.468956020174637e+00
	2.303498076536445e-03
	-2.303498076536445e-03
36		3.309114870757322e-10
	3.000000000000000e+00
	3.000000000000000e+00
	1.097549556594965e+00
	1.061644921928556e+00
	2.973132432086282e+00
	2.999998977503477e-09
	2.999999996999998e+00
	2.999998977503477e-09
	2.999999996999998e+00
	2.999998977503477e-09
	2.999999996999998e+00
	2.999998977503477e-09
	2.999999996999998e+00
	2.999998977503477e-09
	2.999999996999998e+00
	2.999998977503477e-09
	2.999999996999998e+00
	2.999998977503477e-09
	2.476017525438036e+00
	3.792813739453005e-03
	-3.792813739453005e-03
37		3.334698189796319e-10
	3.000000000000000e+00
	3.000000000000000e+00
	1.107718010501263e+00
	1.048150304781289e+00
	2.939957773700298e+00
	2.999999014848063e-09
	2.999999996999998e+00
	2.999999014848063e-09
	2.999999996999998e+00
	2.999999014848063e-09
	2.999999996999998e+00
	2.999999014848063e-09
	2.999999996999998e+00
	2.999999014848063e-09
	2.999999996999998e+00
	2.999999014848063e-09
	2.999999996999998e+00
	2.999999014848063e-09
	2.482677922426521e+00
	3.782736232394973e-03
	-3.782736232394973e-03
38		3.363920784062854e-10
	3.000000000000000e+00
	3.000000000000000e+00
	1.119018782523296e+00
	1.032945793138364e+00
	2.900093858694476e+00
	2.999999197359228e-09
	2.999999996999998e+00
	2.999999197359228e-09
	2.999999996999998e+00
	2.999999197359228e-09
	2.999999996999998e+00
	2.999999197359228e-09
	2.999999996999998e+00
	2.999999197359228e-09
	2.999999996999998e+00
	2.999999197359228e-09
	2.999999996999998e+00
	2.999999197359228e-09
	2.490182230523259e+00
	3.771381822536585e-03
	-3.771381822536585e-03
39		3.408786844856886e-10
	3.000000000000000e+00
	3.000000000000000e+00
	1.135741609374971e+00
	1.010029119901838e+00
	2.839576551733745e+00
	2.999998977778365e-09
	2.999999996999998e+00
	2.999998977778365e-09
	2.999999996999998e+00
	2.999998977778365e-09
	2.999999996999998e+00
	2.999998977778365e-09
	2.999999996999998e+00
	2.999998977778365e-09
	2.999999996999998e+00
	2.999998977778365e-09
	2.999999996999998e+00
	2.999998977778365e-09
	2.501492925494948e+00
	3.754268138449618e-03
	-3.754268138449618e-03
40		3.497184382230093e-10
	3.000000000000000e+00
	3.000000000000000e+00
	1.166599765782459e+00
	9.663446453834938e-01
	2.726826678275020e+00
	2.999998743658243e-09
	2.999999996999998e+00
	2.999998743658243e-09
	2.999999996999998e+00
	2.999998743658243e-09
	2.999999996999998e+00
	2.999998743658243e-09
	2.999999996999998e+00
	2.999998743658243e-09
	2.999999996999998e+00
	2.999998743658243e-09
	2.999999996999998e+00
	2.999998743658243e-09
	2.523053715087339e+00
	3.721645506426126e-03
	-3.721645506426126e-03
41		3.673979456976509e-10
	3.000000000000000e+00
	3.000000000000000e+00
	1.282385999520513e+00
	8.844852738502832e-01
	2.527619897549172e+00
	2.999999234230184e-09
	2.999999996999998e+00
	2.999999234230184e-09
	2.999999996999998e+00
	2.999999234230184e-09
	2.999999996999998e+00
	2.999999234230184e-09
	2.999999996999998e+00
	2.999999234230184e-09
	2.999999996999998e+00
	2.999999234230184e-09
	2.999999996999998e+00
	2.999999234230184e-09
	2.563455995592109e+00
	3.019321681349624e-03
	-3.019321681349624e-03
42		3.904715655224626e-10
	3.000000000000000e+00
	3.000000000000000e+00
	1.451108587088749e+00
	7.878307165113526e-01
	2.313749097509716e+00
	2.999999539910386e-09
	2.999999996999998e+00
	2.999999539910386e-09
	2.999999996999998e+00
	2.999999539910386e-09
	2.999999996999998e+00
	2.999999539910386e-09
	2.999999996999998e+00
	2.999999539910386e-09
	2.999999996999998e+00
	2.999999539910386e-09
	2.999999996999998e+00
	2.999999539910386e-09
	2.611160542569881e+00
	2.862780835563759e-03
	-2.862780835563759e-03
43		4.171821096450606e-10
	3.000000000000000e+00
	3.000000000000000e+00
	1.637717373473473e+00
	6.888841388613471e-01
	2.119590325083130e+00
	2.999999407202005e-09
	2.999999996999997e+00
	2.999999407202005e-09
	2.999999996999997e+00
	2.999999407202005e-09
	2.999999996999997e+00
	2.999999407202005e-09
	2.999999996999997e+00
	2.999999407202005e-09
	2.999999996999997e+00
	2.999999407202005e-09
	2.999999996999997e+00
	2.999999407202005e-09
	2.659996330934774e+00
	2.695585259531175e-03
	-2.695585259531175e-03
44		4.340641315297579e-10
	3.000000000000000e+00
	3.000000000000000e+00
	1.746889447194212e+00
	6.329156016550026e-01
	2.021830382261637e+00
	2.999999572989230e-09
	2.999999996999997e+00
	2.999999572989230e-09
	2.999999996999997e+00
	2.999999572989230e-09
	2.999999996999997e+00
	2.999999572989230e-09
	2.999999996999997e+00
	2.999999572989230e-09
	2.999999996999997e+00
	2.999999572989230e-09
	2.999999996999997e+00
	2.999999572989230e-09
	2.687620000814511e+00
	2.599203119224170e-03
	-2.599203119224170e-03
45		4.457786208260845e-10
	3.000000000000000e+00
	3.000000000000000e+00
	1.818016758292220e+00
	5.968305505527525e-01
	1.963591562479588e+00
	2.999999354979572e-09
	2.999999996999997e+00
	2.999999354979572e-09
	2.999999996999997e+00
	2.999999354979572e-09
	2.999999996999997e+00
	2.999999354979572e-09
	2.999999996999997e+00
	2.999999354979572e-09
	2.999999996999997e+00
	2.999999354979572e-09
	2.999999996999997e+00
	2.999999354979572e-09
	2.705430034526515e+00
	2.536691921330617e-03
	-2.536691921330617e-03
46		4.516565083695484e-10
	3.000000000000000e+00
	3.000000000000000e+00
	1.852238907164295e+00
	5.795295149617701e-01
	1.937018889817136e+00
	2.999999288504722e-09
	2.999999996999998e+00
	2.999999288504722e-09
	2.999999996999998e+00
	2.999999288504722e-09
	2.999999996999998e+00
	2.999999288504722e-09
	2.999999996999998e+00
	2.999999288504722e-09
	2.999999996999998e+00
	2.999999288504722e-09
	2.999999996999998e+00
	2.999999288504722e-09
	2.713969083723211e+00
	2.506660804529742e-03
	-2.506660804529742e-03
47		4.555947237946330e-10
	3.000000000000000e+00
	3.000000000000000e+00
	1.874619070410677e+00
	5.682252113838011e-01
	1.920113473277834e+00
	2.999999209493891e-09
	2.999999996999997e+00
	2.999999209493891e-09
	2.999999996999997e+00
	2.999999209493891e-09
	2.999999996999997e+00
	2.999999209493891e-09
	2.999999996999997e+00
	2.999999209493891e-09
	2.999999996999997e+00
	2.999999209493891e-09
	2.999999996999997e+00
	2.999999209493891e-09
	2.719548403171429e+00
	2.487028911412517e-03
	-2.487028911412517e-03
48		4.589074472473135e-10
	3.000000000000000e+00
	3.000000000000000e+00
	1.893107336607149e+00
	5.588890675608621e-01
	1.906412731449736e+00
	3.334966989607881e-02
	2.999999996999997e+00
	2.999998925891727e-09
	2.999999996999997e+00
	2.999998925891727e-09
	2.999999996999997e+00
	2.999998925891727e-09
	2.999999996999997e+00
	2.999998925891727e-09
	2.999999996999997e+00
	2.999998925891727e-09
	2.999999996999997e+00
	2.999998925891727e-09
	2.724156323370788e+00
	3.970812743320451e-03
	-3.970812743320451e-03
49		4.619060546033383e-10
	3.000000000000000e+00
	3.000000000000000e+00
	1.909580518940464e+00
	5.505711577110923e-01
	1.894400967490325e+00
	7.209894727577185e-02
	2.999999996999996e+00
	2.999999416381389e-09
	2.999999996999996e+00
	2.999999416381389e-09
	2.999999996999996e+00
	2.999999416381389e-09
	2.999999996999996e+00
	2.999999416381389e-09
	2.999999996999996e+00
	2.999999416381389e-09
	2.999999996999996e+00
	2.999999416381389e-09
	2.728261686949015e+00
	3.956364515454142e-03
	-3.956364515454142e-03
50		4.652977198791947e-10
	3.000000000000000e+00
	3.000000000000000e+00
	1.927917878834515e+00
	5.413121907646187e-01
	1.881243101455041e+00
	1.179180437729915e-01
	2.999999996999996e+00
	2.999999090201049e-09
	2.999999996999996e+00
	2.999999090201049e-09
	2.999999996999996e+00
	2.999999090201049e-09
	2.999999996999996e+00
	2.999999090201049e-09
	2.999999996999996e+00
	2.999999090201049e-09
	2.999999996999996e+00
	2.999999090201049e-09
	2.732831515951751e+00
	3.940281437548154e-03
	-3.940281437548154e-03
51		4.707264869100062e-10
	3.000000000000000e+00
	3.000000000000000e+00
	1.956631366888168e+00
	5.268141941708264e-01
	1.861085050184641e+00
	1.898853414363385e-01
	2.999999996999997e+00
	2.999999286104959e-09
	2.999999996999997e+00
	2.999999286104959e-09
	2.999999996999997e+00
	2.999999286104959e-09
	2.999999996999997e+00
	2.999999286104959e-09
	2.999999996999997e+00
	2.999999286104959e-09
	2.999999996999997e+00
	2.999999286104959e-09
	2.739987105306224e+00
	3.915097900573261e-03
	-3.915097900573261e-03
52		4.811225797676996e-10
	3.000000000000000e+00
	3.000000000000000e+00
	2.009505409664907e+00
	5.001171519763946e-01
	1.825365605324069e+00
	3.186481676089234e-01
	2.999999996999998e+00
	2.999999274499631e-09
	2.999999996999998e+00
	2.999999274499631e-09
	2.999999996999998e+00
	2.999999274499631e-09
	2.999999996999998e+00
	2.999999274499631e-09
	2.999999996999998e+00
	2.999999274499631e-09
	2.999999996999998e+00
	2.999999274499631e-09
	2.753163620398243e+00
	3.868724100587397e-03
	-3.868724100587397e-03
53		5.019147654830863e-10
	3.000000000000000e+00
	3.000000000000000e+00
	2.107477146528650e+00
	4.506495509143669e-01
	1.691293014168087e+00
	5.412637602417422e-01
	2.999999996999998e+00
	2.999998841677818e-09
	2.999999996999998e+00
	2.999998841677818e-09
	2.999999996999998e+00
	2.999998841677818e-09
	2.999999996999998e+00
	2.999998841677818e-09
	2.999999996999998e+00
	2.999998841677818e-09
	2.999999996999998e+00
	2.999998841677818e-09
	2.777578706804155e+00
	3.128443396246326e-03
	-3.128443396246326e-03
54		5.271380918209189e-10
	3.000000000000000e+00
	3.000000000000000e+00
	2.213619235187591e+00
	3.970566347586958e-01
	1.510644145752588e+00
	7.578052247472175e-01
	2.999999996999999e+00
	2.999999498707457e-09
	2.999999996999999e+00
	2.999999498707457e-09
	2.999999996999999e+00
	2.999999498707457e-09
	2.999999996999999e+00
	2.999999498707457e-09
	2.999999996999999e+00
	2.999999498707457e-09
	2.999999996999999e+00
	2.999999498707457e-09
	2.804029871821121e+00
	2.945025877306398e-03
	-2.945025877306398e-03
55		5.481985801295736e-10
	3.000000000000000e+00
	3.000000000000000e+00
	2.292534856801066e+00
	3.572108287303445e-01
	1.364708042815452e+00
	9.010424331414023e-01
	2.999999996999999e+00
	2.999999671527883e-09
	2.999999996999999e+00
	2.999999671527883e-09
	2.999999996999999e+00
	2.999999671527883e-09
	2.999999996999999e+00
	2.999999671527883e-09
	2.999999996999999e+00
	2.999999671527883e-09
	2.999999996999999e+00
	2.999999671527883e-09
	2.823696052840799e+00
	2.802844021649167e-03
	-2.802844021649167e-03
56		5.637788252061056e-10
	3.000000000000000e+00
	3.000000000000000e+00
	2.345715529418166e+00
	3.303590281009220e-01
	1.263438924698350e+00
	9.885663974359005e-01
	2.999999996999999e+00
	2.999999589866186e-09
	2.999999996999999e+00
	2.999999589866186e-09
	2.999999996999999e+00
	2.999999589866186e-09
	2.999999996999999e+00
	2.999999589866186e-09
	2.999999996999999e+00
	2.999999589866186e-09
	2.999999996999999e+00
	2.999999589866186e-09
	2.836948950059310e+00
	2.705566777455592e-03
	-2.705566777455592e-03
57		5.748628786955743e-10
	3.000000000000000e+00
	3.000000000000000e+00
	2.381054610015340e+00
	3.125157428372175e-01
	1.195484580839081e+00
	1.042656988634441e+00
	2.999999997000000e+00
	2.999999516968166e-09
	2.999999997000000e+00
	2.999999516968166e-09
	2.999999997000000e+00
	2.999999516968166e-09
	2.999999997000000e+00
	2.999999516968166e-09
	2.999999997000000e+00